<?xml version="1.0" encoding="UTF-8"?>

<!-- generated on 2022-06-16 07:49:47 by Eclipse SUMO sumo Version 1.9.2
<configuration xmlns:xsi="http://www.w3.org/2001/XMLSchema-instance" xsi:noNamespaceSchemaLocation="http://sumo.dlr.de/xsd/sumoConfiguration.xsd">

    <input>
        <net-file value="\\wsl$\Ubuntu\home\svadlmat\UTC\Project/Maps/sumo/Chodov.net.xml"/>
        <route-files value="\\wsl$\Ubuntu\home\svadlmat\UTC\Project/Traci/scenarios/test3/routes1.ruo.xml"/>
    </input>

    <output>
        <tripinfo-output value="tripinfo.xml"/>
        <statistic-output value="result.txt"/>
    </output>

    <time>
        <begin value="0"/>
        <end value="300000"/>
    </time>

    <processing>
        <route-steps value="0"/>
        <time-to-teleport value="-1"/>
    </processing>

    <report>
        <verbose value="true"/>
        <duration-log.statistics value="true"/>
    </report>

    <traci_server>
        <remote-port value="50225"/>
    </traci_server>

</configuration>
-->

<tripinfos xmlns:xsi="http://www.w3.org/2001/XMLSchema-instance" xsi:noNamespaceSchemaLocation="http://sumo.dlr.de/xsd/tripinfo_file.xsd">
    <tripinfo id="v465" depart="0.00" departLane="154_0" departPos="5.10" departSpeed="0.00" departDelay="0.00" arrival="57.00" arrivalLane="161_0" arrivalPos="79.97" arrivalSpeed="14.30" duration="57.00" routeLength="642.81" waitingTime="0.00" waitingCount="0" stopTime="0.00" timeLoss="10.01" rerouteNo="0" devices="tripinfo_v465" vType="CarDefault" speedFactor="1.03" vaporized=""/>
    <tripinfo id="v463" depart="3.00" departLane="154_0" departPos="5.10" departSpeed="0.00" departDelay="2.00" arrival="65.00" arrivalLane="161_0" arrivalPos="79.97" arrivalSpeed="12.07" duration="62.00" routeLength="642.81" waitingTime="0.00" waitingCount="0" stopTime="0.00" timeLoss="10.47" rerouteNo="0" devices="tripinfo_v463" vType="CarDefault" speedFactor="0.94" vaporized=""/>
    <tripinfo id="v471" depart="6.00" departLane="154_0" departPos="5.10" departSpeed="0.00" departDelay="4.00" arrival="70.00" arrivalLane="161_0" arrivalPos="79.97" arrivalSpeed="11.98" duration="64.00" routeLength="642.81" waitingTime="0.00" waitingCount="0" stopTime="0.00" timeLoss="11.61" rerouteNo="0" devices="tripinfo_v471" vType="CarDefault" speedFactor="0.93" vaporized=""/>
    <tripinfo id="v458" depart="9.00" departLane="154_0" departPos="5.10" departSpeed="0.00" departDelay="6.00" arrival="71.00" arrivalLane="161_0" arrivalPos="79.97" arrivalSpeed="13.11" duration="62.00" routeLength="642.81" waitingTime="0.00" waitingCount="0" stopTime="0.00" timeLoss="14.39" rerouteNo="0" devices="tripinfo_v458" vType="CarDefault" speedFactor="1.02" vaporized=""/>
    <tripinfo id="v475" depart="12.00" departLane="154_0" departPos="5.10" departSpeed="0.00" departDelay="9.00" arrival="74.00" arrivalLane="161_0" arrivalPos="79.97" arrivalSpeed="13.34" duration="62.00" routeLength="642.81" waitingTime="0.00" waitingCount="0" stopTime="0.00" timeLoss="13.70" rerouteNo="0" devices="tripinfo_v475" vType="CarDefault" speedFactor="1.01" vaporized=""/>
    <tripinfo id="v461" depart="15.00" departLane="154_0" departPos="5.10" departSpeed="0.00" departDelay="9.00" arrival="75.00" arrivalLane="161_0" arrivalPos="79.97" arrivalSpeed="15.15" duration="60.00" routeLength="642.81" waitingTime="0.00" waitingCount="0" stopTime="0.00" timeLoss="18.87" rerouteNo="0" devices="tripinfo_v461" vType="CarDefault" speedFactor="1.17" vaporized=""/>
    <tripinfo id="v468" depart="18.00" departLane="154_0" departPos="5.10" departSpeed="0.00" departDelay="12.00" arrival="80.00" arrivalLane="161_0" arrivalPos="79.97" arrivalSpeed="12.59" duration="62.00" routeLength="642.81" waitingTime="0.00" waitingCount="0" stopTime="0.00" timeLoss="13.06" rerouteNo="0" devices="tripinfo_v468" vType="CarDefault" speedFactor="0.99" vaporized=""/>
    <tripinfo id="v462" depart="21.00" departLane="154_0" departPos="5.10" departSpeed="0.00" departDelay="13.00" arrival="82.00" arrivalLane="161_0" arrivalPos="79.97" arrivalSpeed="13.01" duration="61.00" routeLength="642.81" waitingTime="0.00" waitingCount="0" stopTime="0.00" timeLoss="13.99" rerouteNo="0" devices="tripinfo_v462" vType="CarDefault" speedFactor="1.04" vaporized=""/>
    <tripinfo id="v476" depart="24.00" departLane="154_0" departPos="5.10" departSpeed="0.00" departDelay="15.00" arrival="85.00" arrivalLane="161_0" arrivalPos="79.97" arrivalSpeed="12.80" duration="61.00" routeLength="642.81" waitingTime="0.00" waitingCount="0" stopTime="0.00" timeLoss="12.00" rerouteNo="0" devices="tripinfo_v476" vType="CarDefault" speedFactor="1.00" vaporized=""/>
    <tripinfo id="v478" depart="26.00" departLane="154_0" departPos="5.10" departSpeed="0.00" departDelay="17.00" arrival="91.00" arrivalLane="161_0" arrivalPos="79.97" arrivalSpeed="11.81" duration="65.00" routeLength="642.81" waitingTime="0.00" waitingCount="0" stopTime="0.00" timeLoss="11.42" rerouteNo="0" devices="tripinfo_v478" vType="CarDefault" speedFactor="0.90" vaporized=""/>
    <tripinfo id="v482" depart="29.00" departLane="154_0" departPos="5.10" departSpeed="0.00" departDelay="20.00" arrival="95.00" arrivalLane="161_0" arrivalPos="79.97" arrivalSpeed="11.67" duration="66.00" routeLength="642.81" waitingTime="0.00" waitingCount="0" stopTime="0.00" timeLoss="10.87" rerouteNo="0" devices="tripinfo_v482" vType="CarDefault" speedFactor="0.88" vaporized=""/>
    <tripinfo id="v472" depart="32.00" departLane="154_0" departPos="5.10" departSpeed="0.00" departDelay="22.00" arrival="98.00" arrivalLane="161_0" arrivalPos="79.97" arrivalSpeed="13.58" duration="66.00" routeLength="642.81" waitingTime="0.00" waitingCount="0" stopTime="0.00" timeLoss="16.62" rerouteNo="0" devices="tripinfo_v472" vType="CarDefault" speedFactor="1.00" vaporized=""/>
    <tripinfo id="v474" depart="35.00" departLane="154_0" departPos="5.10" departSpeed="0.00" departDelay="25.00" arrival="99.00" arrivalLane="161_0" arrivalPos="79.97" arrivalSpeed="13.19" duration="64.00" routeLength="642.81" waitingTime="0.00" waitingCount="0" stopTime="0.00" timeLoss="15.48" rerouteNo="0" devices="tripinfo_v474" vType="CarDefault" speedFactor="1.00" vaporized=""/>
    <tripinfo id="v480" depart="38.00" departLane="154_0" departPos="5.10" departSpeed="0.00" departDelay="28.00" arrival="104.00" arrivalLane="161_0" arrivalPos="79.97" arrivalSpeed="12.23" duration="66.00" routeLength="642.81" waitingTime="0.00" waitingCount="0" stopTime="0.00" timeLoss="12.35" rerouteNo="0" devices="tripinfo_v480" vType="CarDefault" speedFactor="0.90" vaporized=""/>
    <tripinfo id="v469" depart="41.00" departLane="154_0" departPos="5.10" departSpeed="0.00" departDelay="30.00" arrival="106.00" arrivalLane="161_0" arrivalPos="79.97" arrivalSpeed="13.17" duration="65.00" routeLength="642.81" waitingTime="0.00" waitingCount="0" stopTime="0.00" timeLoss="18.07" rerouteNo="0" devices="tripinfo_v469" vType="CarDefault" speedFactor="1.02" vaporized=""/>
    <tripinfo id="v459" depart="44.00" departLane="154_0" departPos="5.10" departSpeed="0.00" departDelay="32.00" arrival="108.00" arrivalLane="161_0" arrivalPos="79.97" arrivalSpeed="14.71" duration="64.00" routeLength="642.81" waitingTime="0.00" waitingCount="0" stopTime="0.00" timeLoss="21.11" rerouteNo="0" devices="tripinfo_v459" vType="CarDefault" speedFactor="1.12" vaporized=""/>
    <tripinfo id="v481" depart="47.00" departLane="154_0" departPos="5.10" departSpeed="0.00" departDelay="35.00" arrival="111.00" arrivalLane="161_0" arrivalPos="79.97" arrivalSpeed="12.71" duration="64.00" routeLength="642.81" waitingTime="0.00" waitingCount="0" stopTime="0.00" timeLoss="16.64" rerouteNo="0" devices="tripinfo_v481" vType="CarDefault" speedFactor="1.02" vaporized=""/>
    <tripinfo id="v1" depart="0.00" departLane="132_0" departPos="5.10" departSpeed="0.00" departDelay="0.00" arrival="112.00" arrivalLane="74_0" arrivalPos="122.21" arrivalSpeed="14.07" duration="112.00" routeLength="1356.57" waitingTime="0.00" waitingCount="0" stopTime="0.00" timeLoss="10.54" rerouteNo="0" devices="tripinfo_v1" vType="CarDefault" speedFactor="1.06" vaporized=""/>
    <tripinfo id="v464" depart="49.00" departLane="154_0" departPos="5.10" departSpeed="0.00" departDelay="36.00" arrival="115.00" arrivalLane="161_0" arrivalPos="79.97" arrivalSpeed="11.32" duration="66.00" routeLength="642.81" waitingTime="0.00" waitingCount="0" stopTime="0.00" timeLoss="12.71" rerouteNo="0" devices="tripinfo_v464" vType="CarDefault" speedFactor="0.91" vaporized=""/>
    <tripinfo id="v470" depart="53.00" departLane="154_0" departPos="5.10" departSpeed="0.00" departDelay="40.00" arrival="118.00" arrivalLane="161_0" arrivalPos="79.97" arrivalSpeed="11.56" duration="65.00" routeLength="642.81" waitingTime="0.00" waitingCount="0" stopTime="0.00" timeLoss="11.44" rerouteNo="0" devices="tripinfo_v470" vType="CarDefault" speedFactor="0.91" vaporized=""/>
    <tripinfo id="v479" depart="56.00" departLane="154_0" departPos="5.10" departSpeed="0.00" departDelay="43.00" arrival="119.00" arrivalLane="161_0" arrivalPos="79.97" arrivalSpeed="13.84" duration="63.00" routeLength="642.81" waitingTime="0.00" waitingCount="0" stopTime="0.00" timeLoss="16.58" rerouteNo="0" devices="tripinfo_v479" vType="CarDefault" speedFactor="1.04" vaporized=""/>
    <tripinfo id="v466" depart="59.00" departLane="154_0" departPos="5.10" departSpeed="0.00" departDelay="43.00" arrival="123.00" arrivalLane="161_0" arrivalPos="79.97" arrivalSpeed="13.08" duration="64.00" routeLength="642.81" waitingTime="0.00" waitingCount="0" stopTime="0.00" timeLoss="14.09" rerouteNo="0" devices="tripinfo_v466" vType="CarDefault" speedFactor="0.98" vaporized=""/>
    <tripinfo id="v477" depart="62.00" departLane="154_0" departPos="5.10" departSpeed="0.00" departDelay="46.00" arrival="124.00" arrivalLane="161_0" arrivalPos="79.97" arrivalSpeed="12.85" duration="62.00" routeLength="642.81" waitingTime="0.00" waitingCount="0" stopTime="0.00" timeLoss="15.05" rerouteNo="0" devices="tripinfo_v477" vType="CarDefault" speedFactor="1.03" vaporized=""/>
    <tripinfo id="v467" depart="65.00" departLane="154_0" departPos="5.10" departSpeed="0.00" departDelay="48.00" arrival="127.00" arrivalLane="161_0" arrivalPos="79.97" arrivalSpeed="13.49" duration="62.00" routeLength="642.81" waitingTime="0.00" waitingCount="0" stopTime="0.00" timeLoss="15.14" rerouteNo="0" devices="tripinfo_v467" vType="CarDefault" speedFactor="1.03" vaporized=""/>
    <tripinfo id="v12" depart="0.00" departLane="132_1" departPos="5.10" departSpeed="0.00" departDelay="0.00" arrival="128.00" arrivalLane="74_0" arrivalPos="122.21" arrivalSpeed="12.67" duration="128.00" routeLength="1356.57" waitingTime="0.00" waitingCount="0" stopTime="0.00" timeLoss="13.00" rerouteNo="0" devices="tripinfo_v12" vType="CarDefault" speedFactor="0.94" vaporized=""/>
    <tripinfo id="v28" depart="3.00" departLane="132_0" departPos="5.10" departSpeed="0.00" departDelay="3.00" arrival="130.00" arrivalLane="74_0" arrivalPos="122.21" arrivalSpeed="14.78" duration="127.00" routeLength="1356.57" waitingTime="0.00" waitingCount="0" stopTime="0.00" timeLoss="27.38" rerouteNo="0" devices="tripinfo_v28" vType="CarDefault" speedFactor="1.08" vaporized=""/>
    <tripinfo id="v483" depart="68.00" departLane="154_0" departPos="5.10" departSpeed="0.00" departDelay="51.00" arrival="130.00" arrivalLane="161_0" arrivalPos="79.97" arrivalSpeed="13.24" duration="62.00" routeLength="642.81" waitingTime="0.00" waitingCount="0" stopTime="0.00" timeLoss="13.36" rerouteNo="0" devices="tripinfo_v483" vType="CarDefault" speedFactor="1.00" vaporized=""/>
    <tripinfo id="v460" depart="71.00" departLane="154_0" departPos="5.10" departSpeed="0.00" departDelay="53.00" arrival="132.00" arrivalLane="161_0" arrivalPos="79.97" arrivalSpeed="13.09" duration="61.00" routeLength="642.81" waitingTime="0.00" waitingCount="0" stopTime="0.00" timeLoss="12.93" rerouteNo="0" devices="tripinfo_v460" vType="CarDefault" speedFactor="1.00" vaporized=""/>
    <tripinfo id="v473" depart="74.00" departLane="154_0" departPos="5.10" departSpeed="0.00" departDelay="55.00" arrival="135.00" arrivalLane="161_0" arrivalPos="79.97" arrivalSpeed="14.03" duration="61.00" routeLength="642.81" waitingTime="0.00" waitingCount="0" stopTime="0.00" timeLoss="12.95" rerouteNo="0" devices="tripinfo_v473" vType="CarDefault" speedFactor="1.02" vaporized=""/>
    <tripinfo id="v493" depart="77.00" departLane="154_0" departPos="5.10" departSpeed="0.00" departDelay="57.00" arrival="141.00" arrivalLane="161_0" arrivalPos="79.97" arrivalSpeed="11.69" duration="64.00" routeLength="642.81" waitingTime="0.00" waitingCount="0" stopTime="0.00" timeLoss="9.44" rerouteNo="0" devices="tripinfo_v493" vType="CarDefault" speedFactor="0.89" vaporized=""/>
    <tripinfo id="v487" depart="79.00" departLane="154_0" departPos="5.10" departSpeed="0.00" departDelay="54.00" arrival="144.00" arrivalLane="161_0" arrivalPos="79.97" arrivalSpeed="12.48" duration="65.00" routeLength="642.81" waitingTime="1.00" waitingCount="1" stopTime="0.00" timeLoss="11.80" rerouteNo="0" devices="tripinfo_v487" vType="CarDefault" speedFactor="0.93" vaporized=""/>
    <tripinfo id="v484" depart="83.00" departLane="154_0" departPos="5.10" departSpeed="0.00" departDelay="57.00" arrival="145.00" arrivalLane="161_0" arrivalPos="79.97" arrivalSpeed="15.00" duration="62.00" routeLength="642.81" waitingTime="0.00" waitingCount="0" stopTime="0.00" timeLoss="18.27" rerouteNo="0" devices="tripinfo_v484" vType="CarDefault" speedFactor="1.10" vaporized=""/>
    <tripinfo id="v496" depart="86.00" departLane="154_0" departPos="5.10" departSpeed="0.00" departDelay="60.00" arrival="148.00" arrivalLane="161_0" arrivalPos="79.97" arrivalSpeed="14.01" duration="62.00" routeLength="642.81" waitingTime="0.00" waitingCount="0" stopTime="0.00" timeLoss="13.63" rerouteNo="0" devices="tripinfo_v496" vType="CarDefault" speedFactor="1.01" vaporized=""/>
    <tripinfo id="v796" depart="0.00" departLane="84_0" departPos="5.10" departSpeed="0.00" departDelay="0.00" arrival="150.00" arrivalLane="159_0" arrivalPos="290.81" arrivalSpeed="11.01" duration="150.00" routeLength="1125.95" waitingTime="31.00" waitingCount="1" stopTime="0.00" timeLoss="48.95" rerouteNo="0" devices="tripinfo_v796" vType="CarDefault" speedFactor="0.83" vaporized=""/>
    <tripinfo id="v490" depart="89.00" departLane="154_0" departPos="5.10" departSpeed="0.00" departDelay="60.00" arrival="150.00" arrivalLane="161_0" arrivalPos="79.97" arrivalSpeed="14.22" duration="61.00" routeLength="642.81" waitingTime="0.00" waitingCount="0" stopTime="0.00" timeLoss="13.59" rerouteNo="0" devices="tripinfo_v490" vType="CarDefault" speedFactor="1.03" vaporized=""/>
    <tripinfo id="v494" depart="92.00" departLane="154_0" departPos="5.10" departSpeed="0.00" departDelay="63.00" arrival="154.00" arrivalLane="161_0" arrivalPos="79.97" arrivalSpeed="13.63" duration="62.00" routeLength="642.81" waitingTime="0.00" waitingCount="0" stopTime="0.00" timeLoss="13.89" rerouteNo="0" devices="tripinfo_v494" vType="CarDefault" speedFactor="1.02" vaporized=""/>
    <tripinfo id="v495" depart="95.00" departLane="154_0" departPos="5.10" departSpeed="0.00" departDelay="66.00" arrival="155.00" arrivalLane="161_0" arrivalPos="79.97" arrivalSpeed="14.17" duration="60.00" routeLength="642.81" waitingTime="0.00" waitingCount="0" stopTime="0.00" timeLoss="14.51" rerouteNo="0" devices="tripinfo_v495" vType="CarDefault" speedFactor="1.06" vaporized=""/>
    <tripinfo id="v486" depart="97.00" departLane="154_0" departPos="5.10" departSpeed="0.00" departDelay="65.00" arrival="161.00" arrivalLane="161_0" arrivalPos="79.97" arrivalSpeed="14.01" duration="64.00" routeLength="642.81" waitingTime="0.00" waitingCount="0" stopTime="0.00" timeLoss="16.17" rerouteNo="0" devices="tripinfo_v486" vType="CarDefault" speedFactor="1.01" vaporized=""/>
    <tripinfo id="v491" depart="100.00" departLane="154_0" departPos="5.10" departSpeed="0.00" departDelay="68.00" arrival="163.00" arrivalLane="161_0" arrivalPos="79.97" arrivalSpeed="14.77" duration="63.00" routeLength="642.81" waitingTime="0.00" waitingCount="0" stopTime="0.00" timeLoss="20.12" rerouteNo="0" devices="tripinfo_v491" vType="CarDefault" speedFactor="1.12" vaporized=""/>
    <tripinfo id="v485" depart="104.00" departLane="154_0" departPos="5.10" departSpeed="0.00" departDelay="71.00" arrival="168.00" arrivalLane="161_0" arrivalPos="79.97" arrivalSpeed="12.30" duration="64.00" routeLength="642.81" waitingTime="0.00" waitingCount="0" stopTime="0.00" timeLoss="13.46" rerouteNo="0" devices="tripinfo_v485" vType="CarDefault" speedFactor="0.95" vaporized=""/>
    <tripinfo id="v497" depart="107.00" departLane="154_0" departPos="5.10" departSpeed="0.00" departDelay="74.00" arrival="170.00" arrivalLane="161_0" arrivalPos="79.97" arrivalSpeed="15.16" duration="63.00" routeLength="642.81" waitingTime="0.00" waitingCount="0" stopTime="0.00" timeLoss="18.61" rerouteNo="0" devices="tripinfo_v497" vType="CarDefault" speedFactor="1.11" vaporized=""/>
    <tripinfo id="v492" depart="110.00" departLane="154_0" departPos="5.10" departSpeed="0.00" departDelay="73.00" arrival="173.00" arrivalLane="161_0" arrivalPos="79.97" arrivalSpeed="13.49" duration="63.00" routeLength="642.81" waitingTime="0.00" waitingCount="0" stopTime="0.00" timeLoss="14.47" rerouteNo="0" devices="tripinfo_v492" vType="CarDefault" speedFactor="1.00" vaporized=""/>
    <tripinfo id="v489" depart="113.00" departLane="154_0" departPos="5.10" departSpeed="0.00" departDelay="75.00" arrival="174.00" arrivalLane="161_0" arrivalPos="79.97" arrivalSpeed="13.49" duration="61.00" routeLength="642.81" waitingTime="0.00" waitingCount="0" stopTime="0.00" timeLoss="15.69" rerouteNo="0" devices="tripinfo_v489" vType="CarDefault" speedFactor="1.06" vaporized=""/>
    <tripinfo id="v808" depart="3.00" departLane="84_0" departPos="5.10" departSpeed="0.00" departDelay="3.00" arrival="176.00" arrivalLane="159_0" arrivalPos="290.81" arrivalSpeed="13.16" duration="173.00" routeLength="1125.95" waitingTime="57.00" waitingCount="2" stopTime="0.00" timeLoss="92.01" rerouteNo="0" devices="tripinfo_v808" vType="CarDefault" speedFactor="1.05" vaporized=""/>
    <tripinfo id="v18" depart="2.00" departLane="132_1" departPos="5.10" departSpeed="0.00" departDelay="2.00" arrival="177.00" arrivalLane="74_0" arrivalPos="122.21" arrivalSpeed="13.40" duration="175.00" routeLength="1356.57" waitingTime="47.00" waitingCount="1" stopTime="0.00" timeLoss="68.96" rerouteNo="0" devices="tripinfo_v18" vType="CarDefault" speedFactor="1.01" vaporized=""/>
    <tripinfo id="v488" depart="116.00" departLane="154_0" departPos="5.10" departSpeed="0.00" departDelay="77.00" arrival="177.00" arrivalLane="161_0" arrivalPos="79.97" arrivalSpeed="13.64" duration="61.00" routeLength="642.81" waitingTime="0.00" waitingCount="0" stopTime="0.00" timeLoss="15.50" rerouteNo="0" devices="tripinfo_v488" vType="CarDefault" speedFactor="1.08" vaporized=""/>
    <tripinfo id="v8" depart="8.00" departLane="132_0" departPos="5.10" departSpeed="0.00" departDelay="6.00" arrival="180.00" arrivalLane="74_0" arrivalPos="122.21" arrivalSpeed="14.17" duration="172.00" routeLength="1356.57" waitingTime="45.00" waitingCount="1" stopTime="0.00" timeLoss="69.63" rerouteNo="0" devices="tripinfo_v8" vType="CarDefault" speedFactor="1.05" vaporized=""/>
    <tripinfo id="v520" depart="119.00" departLane="154_0" departPos="5.10" departSpeed="0.00" departDelay="79.00" arrival="181.00" arrivalLane="161_0" arrivalPos="79.97" arrivalSpeed="12.59" duration="62.00" routeLength="642.81" waitingTime="0.00" waitingCount="0" stopTime="0.00" timeLoss="12.87" rerouteNo="0" devices="tripinfo_v520" vType="CarDefault" speedFactor="0.98" vaporized=""/>
    <tripinfo id="v13" depart="6.00" departLane="132_0" departPos="5.10" departSpeed="0.00" departDelay="4.00" arrival="182.00" arrivalLane="74_0" arrivalPos="122.21" arrivalSpeed="15.31" duration="176.00" routeLength="1356.57" waitingTime="45.00" waitingCount="2" stopTime="0.00" timeLoss="80.20" rerouteNo="0" devices="tripinfo_v13" vType="CarDefault" speedFactor="1.12" vaporized=""/>
    <tripinfo id="v521" depart="122.00" departLane="154_0" departPos="5.10" departSpeed="0.00" departDelay="81.00" arrival="183.00" arrivalLane="161_0" arrivalPos="79.97" arrivalSpeed="14.75" duration="61.00" routeLength="642.81" waitingTime="0.00" waitingCount="0" stopTime="0.00" timeLoss="17.62" rerouteNo="0" devices="tripinfo_v521" vType="CarDefault" speedFactor="1.14" vaporized=""/>
    <tripinfo id="v508" depart="124.00" departLane="154_0" departPos="5.10" departSpeed="0.00" departDelay="82.00" arrival="186.00" arrivalLane="161_0" arrivalPos="79.97" arrivalSpeed="12.98" duration="62.00" routeLength="642.81" waitingTime="0.00" waitingCount="0" stopTime="0.00" timeLoss="14.69" rerouteNo="0" devices="tripinfo_v508" vType="CarDefault" speedFactor="1.03" vaporized=""/>
    <tripinfo id="v514" depart="127.00" departLane="154_0" departPos="5.10" departSpeed="0.00" departDelay="85.00" arrival="187.00" arrivalLane="161_0" arrivalPos="79.97" arrivalSpeed="14.28" duration="60.00" routeLength="642.81" waitingTime="0.00" waitingCount="0" stopTime="0.00" timeLoss="15.37" rerouteNo="0" devices="tripinfo_v514" vType="CarDefault" speedFactor="1.08" vaporized=""/>
    <tripinfo id="v11" depart="5.00" departLane="132_1" departPos="5.10" departSpeed="0.00" departDelay="4.00" arrival="190.00" arrivalLane="74_0" arrivalPos="122.21" arrivalSpeed="11.56" duration="185.00" routeLength="1356.57" waitingTime="40.00" waitingCount="2" stopTime="0.00" timeLoss="63.87" rerouteNo="0" devices="tripinfo_v11" vType="CarDefault" speedFactor="0.89" vaporized=""/>
    <tripinfo id="v37" depart="11.00" departLane="132_0" departPos="5.10" departSpeed="0.00" departDelay="9.00" arrival="192.00" arrivalLane="74_0" arrivalPos="122.21" arrivalSpeed="13.47" duration="181.00" routeLength="1356.57" waitingTime="38.00" waitingCount="1" stopTime="0.00" timeLoss="72.02" rerouteNo="0" devices="tripinfo_v37" vType="CarDefault" speedFactor="0.99" vaporized=""/>
    <tripinfo id="v525" depart="130.00" departLane="154_0" departPos="5.10" departSpeed="0.00" departDelay="88.00" arrival="192.00" arrivalLane="161_0" arrivalPos="79.97" arrivalSpeed="14.73" duration="62.00" routeLength="642.81" waitingTime="0.00" waitingCount="0" stopTime="0.00" timeLoss="16.61" rerouteNo="0" devices="tripinfo_v525" vType="CarDefault" speedFactor="1.06" vaporized=""/>
    <tripinfo id="v0" depart="9.00" departLane="132_1" departPos="5.10" departSpeed="0.00" departDelay="6.00" arrival="196.00" arrivalLane="74_0" arrivalPos="122.21" arrivalSpeed="11.89" duration="187.00" routeLength="1356.57" waitingTime="39.00" waitingCount="2" stopTime="0.00" timeLoss="64.46" rerouteNo="0" devices="tripinfo_v0" vType="CarDefault" speedFactor="0.88" vaporized=""/>
    <tripinfo id="v6" depart="14.00" departLane="132_0" departPos="5.10" departSpeed="0.00" departDelay="11.00" arrival="198.00" arrivalLane="74_0" arrivalPos="122.21" arrivalSpeed="11.83" duration="184.00" routeLength="1356.57" waitingTime="37.00" waitingCount="2" stopTime="0.00" timeLoss="69.30" rerouteNo="0" devices="tripinfo_v6" vType="CarDefault" speedFactor="0.94" vaporized=""/>
    <tripinfo id="v36" depart="12.00" departLane="132_1" departPos="5.10" departSpeed="0.00" departDelay="9.00" arrival="200.00" arrivalLane="74_0" arrivalPos="122.21" arrivalSpeed="11.93" duration="188.00" routeLength="1356.57" waitingTime="36.00" waitingCount="1" stopTime="0.00" timeLoss="73.37" rerouteNo="0" devices="tripinfo_v36" vType="CarDefault" speedFactor="0.94" vaporized=""/>
    <tripinfo id="v519" depart="133.00" departLane="154_0" departPos="5.10" departSpeed="0.00" departDelay="89.00" arrival="200.00" arrivalLane="161_0" arrivalPos="79.97" arrivalSpeed="11.37" duration="67.00" routeLength="642.81" waitingTime="0.00" waitingCount="0" stopTime="0.00" timeLoss="13.58" rerouteNo="0" devices="tripinfo_v519" vType="CarDefault" speedFactor="0.92" vaporized=""/>
    <tripinfo id="v20" depart="17.00" departLane="132_0" departPos="5.10" departSpeed="0.00" departDelay="11.00" arrival="202.00" arrivalLane="74_0" arrivalPos="122.21" arrivalSpeed="14.97" duration="185.00" routeLength="1356.57" waitingTime="36.00" waitingCount="2" stopTime="0.00" timeLoss="91.29" rerouteNo="0" devices="tripinfo_v20" vType="CarDefault" speedFactor="1.15" vaporized=""/>
    <tripinfo id="v507" depart="136.00" departLane="154_0" departPos="5.10" departSpeed="0.00" departDelay="91.00" arrival="202.00" arrivalLane="161_0" arrivalPos="79.97" arrivalSpeed="13.08" duration="66.00" routeLength="642.81" waitingTime="0.00" waitingCount="0" stopTime="0.00" timeLoss="15.37" rerouteNo="0" devices="tripinfo_v507" vType="CarDefault" speedFactor="0.97" vaporized=""/>
    <tripinfo id="v504" depart="139.00" departLane="154_0" departPos="5.10" departSpeed="0.00" departDelay="93.00" arrival="204.00" arrivalLane="161_0" arrivalPos="79.97" arrivalSpeed="13.04" duration="65.00" routeLength="642.81" waitingTime="0.00" waitingCount="0" stopTime="0.00" timeLoss="16.18" rerouteNo="0" devices="tripinfo_v504" vType="CarDefault" speedFactor="1.00" vaporized=""/>
    <tripinfo id="v5" depart="20.00" departLane="132_0" departPos="5.10" departSpeed="0.00" departDelay="16.00" arrival="206.00" arrivalLane="74_0" arrivalPos="122.21" arrivalSpeed="11.96" duration="186.00" routeLength="1356.57" waitingTime="34.00" waitingCount="1" stopTime="0.00" timeLoss="65.19" rerouteNo="0" devices="tripinfo_v5" vType="CarDefault" speedFactor="0.89" vaporized=""/>
    <tripinfo id="v39" depart="15.00" departLane="132_1" departPos="5.10" departSpeed="0.00" departDelay="12.00" arrival="207.00" arrivalLane="74_0" arrivalPos="122.21" arrivalSpeed="13.69" duration="192.00" routeLength="1356.57" waitingTime="40.00" waitingCount="3" stopTime="0.00" timeLoss="99.48" rerouteNo="0" devices="tripinfo_v39" vType="CarDefault" speedFactor="1.16" vaporized=""/>
    <tripinfo id="v14" depart="18.00" departLane="132_1" departPos="5.10" departSpeed="0.00" departDelay="12.00" arrival="209.00" arrivalLane="74_0" arrivalPos="122.21" arrivalSpeed="14.92" duration="191.00" routeLength="1356.57" waitingTime="37.00" waitingCount="1" stopTime="0.00" timeLoss="99.88" rerouteNo="0" devices="tripinfo_v14" vType="CarDefault" speedFactor="1.18" vaporized=""/>
    <tripinfo id="v518" depart="142.00" departLane="154_0" departPos="5.10" departSpeed="0.00" departDelay="96.00" arrival="211.00" arrivalLane="161_0" arrivalPos="79.97" arrivalSpeed="11.66" duration="69.00" routeLength="642.81" waitingTime="0.00" waitingCount="0" stopTime="0.00" timeLoss="11.22" rerouteNo="0" devices="tripinfo_v518" vType="CarDefault" speedFactor="0.84" vaporized=""/>
    <tripinfo id="v515" depart="144.00" departLane="154_0" departPos="5.10" departSpeed="0.00" departDelay="97.00" arrival="213.00" arrivalLane="161_0" arrivalPos="79.97" arrivalSpeed="13.84" duration="69.00" routeLength="642.81" waitingTime="0.00" waitingCount="0" stopTime="0.00" timeLoss="22.11" rerouteNo="0" devices="tripinfo_v515" vType="CarDefault" speedFactor="1.04" vaporized=""/>
    <tripinfo id="v33" depart="23.00" departLane="132_0" departPos="5.10" departSpeed="0.00" departDelay="19.00" arrival="214.00" arrivalLane="74_0" arrivalPos="122.21" arrivalSpeed="10.77" duration="191.00" routeLength="1356.57" waitingTime="36.00" waitingCount="1" stopTime="0.00" timeLoss="61.33" rerouteNo="0" devices="tripinfo_v33" vType="CarDefault" speedFactor="0.83" vaporized=""/>
    <tripinfo id="v517" depart="147.00" departLane="154_0" departPos="5.10" departSpeed="0.00" departDelay="100.00" arrival="215.00" arrivalLane="161_0" arrivalPos="79.97" arrivalSpeed="15.39" duration="68.00" routeLength="642.81" waitingTime="1.00" waitingCount="1" stopTime="0.00" timeLoss="23.03" rerouteNo="0" devices="tripinfo_v517" vType="CarDefault" speedFactor="1.11" vaporized=""/>
    <tripinfo id="v3" depart="24.00" departLane="132_1" departPos="5.10" departSpeed="0.00" departDelay="17.00" arrival="216.00" arrivalLane="74_0" arrivalPos="122.21" arrivalSpeed="12.75" duration="192.00" routeLength="1356.57" waitingTime="34.00" waitingCount="1" stopTime="0.00" timeLoss="86.48" rerouteNo="0" devices="tripinfo_v3" vType="CarDefault" speedFactor="1.02" vaporized=""/>
    <tripinfo id="v522" depart="151.00" departLane="154_0" departPos="5.10" departSpeed="0.00" departDelay="104.00" arrival="216.00" arrivalLane="161_0" arrivalPos="79.97" arrivalSpeed="14.02" duration="65.00" routeLength="642.81" waitingTime="0.00" waitingCount="0" stopTime="0.00" timeLoss="19.43" rerouteNo="0" devices="tripinfo_v522" vType="CarDefault" speedFactor="1.07" vaporized=""/>
    <tripinfo id="v24" depart="27.00" departLane="132_1" departPos="5.10" departSpeed="0.00" departDelay="20.00" arrival="218.00" arrivalLane="74_0" arrivalPos="122.21" arrivalSpeed="14.28" duration="191.00" routeLength="1356.57" waitingTime="33.00" waitingCount="1" stopTime="0.00" timeLoss="93.42" rerouteNo="0" devices="tripinfo_v24" vType="CarDefault" speedFactor="1.10" vaporized=""/>
    <tripinfo id="v509" depart="154.00" departLane="154_0" departPos="5.10" departSpeed="0.00" departDelay="105.00" arrival="219.00" arrivalLane="161_0" arrivalPos="79.97" arrivalSpeed="13.92" duration="65.00" routeLength="642.81" waitingTime="0.00" waitingCount="0" stopTime="0.00" timeLoss="19.55" rerouteNo="0" devices="tripinfo_v509" vType="CarDefault" speedFactor="1.09" vaporized=""/>
    <tripinfo id="v29" depart="21.00" departLane="132_1" departPos="5.10" departSpeed="0.00" departDelay="16.00" arrival="221.00" arrivalLane="74_0" arrivalPos="122.21" arrivalSpeed="12.12" duration="200.00" routeLength="1356.57" waitingTime="37.00" waitingCount="2" stopTime="0.00" timeLoss="86.97" rerouteNo="0" devices="tripinfo_v29" vType="CarDefault" speedFactor="0.95" vaporized=""/>