<?xml version="1.0" encoding="UTF-8"?>

<!-- generated on 2022-06-16 07:48:23 by Eclipse SUMO sumo Version 1.9.2
<configuration xmlns:xsi="http://www.w3.org/2001/XMLSchema-instance" xsi:noNamespaceSchemaLocation="http://sumo.dlr.de/xsd/sumoConfiguration.xsd">

    <input>
        <net-file value="\\wsl$\Ubuntu\home\svadlmat\UTC\Project/Maps/sumo/Chodov.net.xml"/>
        <route-files value="\\wsl$\Ubuntu\home\svadlmat\UTC\Project/Traci/scenarios/test3/routes.ruo.xml"/>
    </input>

    <output>
        <tripinfo-output value="tripinfo.xml"/>
        <statistic-output value="result.txt"/>
    </output>

    <time>
        <begin value="0"/>
        <end value="300000"/>
    </time>

    <processing>
        <route-steps value="0"/>
        <time-to-teleport value="-1"/>
    </processing>

    <report>
        <verbose value="true"/>
        <duration-log.statistics value="true"/>
    </report>

    <traci_server>
        <remote-port value="50223"/>
    </traci_server>

</configuration>
-->

<tripinfos xmlns:xsi="http://www.w3.org/2001/XMLSchema-instance" xsi:noNamespaceSchemaLocation="http://sumo.dlr.de/xsd/tripinfo_file.xsd">
    <tripinfo id="v465" depart="0.00" departLane="154_0" departPos="5.10" departSpeed="0.00" departDelay="0.00" arrival="71.00" arrivalLane="161_0" arrivalPos="79.97" arrivalSpeed="14.12" duration="71.00" routeLength="643.08" waitingTime="11.00" waitingCount="1" stopTime="0.00" timeLoss="23.31" rerouteNo="0" devices="tripinfo_v465" vType="CarDefault" speedFactor="1.03" vaporized=""/>
    <tripinfo id="v463" depart="3.00" departLane="154_0" departPos="5.10" departSpeed="0.00" departDelay="2.00" arrival="81.00" arrivalLane="161_0" arrivalPos="79.97" arrivalSpeed="12.96" duration="78.00" routeLength="643.08" waitingTime="10.00" waitingCount="2" stopTime="0.00" timeLoss="25.58" rerouteNo="0" devices="tripinfo_v463" vType="CarDefault" speedFactor="0.94" vaporized=""/>
    <tripinfo id="v471" depart="6.00" departLane="154_0" departPos="5.10" departSpeed="0.00" departDelay="4.00" arrival="83.00" arrivalLane="161_0" arrivalPos="79.97" arrivalSpeed="12.28" duration="77.00" routeLength="643.08" waitingTime="7.00" waitingCount="2" stopTime="0.00" timeLoss="25.03" rerouteNo="0" devices="tripinfo_v471" vType="CarDefault" speedFactor="0.93" vaporized=""/>
    <tripinfo id="v458" depart="9.00" departLane="154_0" departPos="5.10" departSpeed="0.00" departDelay="6.00" arrival="85.00" arrivalLane="161_0" arrivalPos="79.97" arrivalSpeed="12.92" duration="76.00" routeLength="643.08" waitingTime="3.00" waitingCount="2" stopTime="0.00" timeLoss="27.80" rerouteNo="0" devices="tripinfo_v458" vType="CarDefault" speedFactor="1.02" vaporized=""/>
    <tripinfo id="v475" depart="12.00" departLane="154_0" departPos="5.10" departSpeed="0.00" departDelay="9.00" arrival="87.00" arrivalLane="161_0" arrivalPos="79.97" arrivalSpeed="13.14" duration="75.00" routeLength="643.08" waitingTime="3.00" waitingCount="2" stopTime="0.00" timeLoss="26.91" rerouteNo="0" devices="tripinfo_v475" vType="CarDefault" speedFactor="1.01" vaporized=""/>
    <tripinfo id="v461" depart="15.00" departLane="154_0" departPos="5.10" departSpeed="0.00" departDelay="9.00" arrival="88.00" arrivalLane="161_0" arrivalPos="79.97" arrivalSpeed="16.15" duration="73.00" routeLength="643.08" waitingTime="1.00" waitingCount="1" stopTime="0.00" timeLoss="31.10" rerouteNo="0" devices="tripinfo_v461" vType="CarDefault" speedFactor="1.17" vaporized=""/>
    <tripinfo id="v468" depart="18.00" departLane="154_0" departPos="5.10" departSpeed="0.00" departDelay="12.00" arrival="91.00" arrivalLane="161_0" arrivalPos="79.97" arrivalSpeed="12.92" duration="73.00" routeLength="643.08" waitingTime="0.00" waitingCount="0" stopTime="0.00" timeLoss="24.38" rerouteNo="0" devices="tripinfo_v468" vType="CarDefault" speedFactor="0.99" vaporized=""/>
    <tripinfo id="v462" depart="21.00" departLane="154_0" departPos="5.10" departSpeed="0.00" departDelay="13.00" arrival="94.00" arrivalLane="161_0" arrivalPos="79.97" arrivalSpeed="13.45" duration="73.00" routeLength="643.08" waitingTime="0.00" waitingCount="0" stopTime="0.00" timeLoss="25.38" rerouteNo="0" devices="tripinfo_v462" vType="CarDefault" speedFactor="1.04" vaporized=""/>
    <tripinfo id="v476" depart="24.00" departLane="154_0" departPos="5.10" departSpeed="0.00" departDelay="15.00" arrival="96.00" arrivalLane="161_0" arrivalPos="79.97" arrivalSpeed="13.61" duration="72.00" routeLength="643.08" waitingTime="0.00" waitingCount="0" stopTime="0.00" timeLoss="23.60" rerouteNo="0" devices="tripinfo_v476" vType="CarDefault" speedFactor="1.00" vaporized=""/>
    <tripinfo id="v478" depart="26.00" departLane="154_0" departPos="5.10" departSpeed="0.00" departDelay="17.00" arrival="101.00" arrivalLane="161_0" arrivalPos="79.97" arrivalSpeed="11.09" duration="75.00" routeLength="643.08" waitingTime="0.00" waitingCount="0" stopTime="0.00" timeLoss="20.59" rerouteNo="0" devices="tripinfo_v478" vType="CarDefault" speedFactor="0.90" vaporized=""/>
    <tripinfo id="v482" depart="29.00" departLane="154_0" departPos="5.10" departSpeed="0.00" departDelay="20.00" arrival="103.00" arrivalLane="161_0" arrivalPos="79.97" arrivalSpeed="11.54" duration="74.00" routeLength="643.08" waitingTime="0.00" waitingCount="0" stopTime="0.00" timeLoss="18.45" rerouteNo="0" devices="tripinfo_v482" vType="CarDefault" speedFactor="0.88" vaporized=""/>
    <tripinfo id="v472" depart="32.00" departLane="154_0" departPos="5.10" departSpeed="0.00" departDelay="22.00" arrival="105.00" arrivalLane="161_0" arrivalPos="79.97" arrivalSpeed="13.43" duration="73.00" routeLength="643.08" waitingTime="0.00" waitingCount="0" stopTime="0.00" timeLoss="23.81" rerouteNo="0" devices="tripinfo_v472" vType="CarDefault" speedFactor="1.00" vaporized=""/>
    <tripinfo id="v474" depart="35.00" departLane="154_0" departPos="5.10" departSpeed="0.00" departDelay="25.00" arrival="107.00" arrivalLane="161_0" arrivalPos="79.97" arrivalSpeed="13.53" duration="72.00" routeLength="643.08" waitingTime="0.00" waitingCount="0" stopTime="0.00" timeLoss="22.65" rerouteNo="0" devices="tripinfo_v474" vType="CarDefault" speedFactor="1.00" vaporized=""/>
    <tripinfo id="v480" depart="38.00" departLane="154_0" departPos="5.10" departSpeed="0.00" departDelay="28.00" arrival="114.00" arrivalLane="161_0" arrivalPos="79.97" arrivalSpeed="11.49" duration="76.00" routeLength="643.08" waitingTime="0.00" waitingCount="0" stopTime="0.00" timeLoss="21.85" rerouteNo="0" devices="tripinfo_v480" vType="CarDefault" speedFactor="0.90" vaporized=""/>
    <tripinfo id="v469" depart="41.00" departLane="154_0" departPos="5.10" departSpeed="0.00" departDelay="30.00" arrival="116.00" arrivalLane="161_0" arrivalPos="79.97" arrivalSpeed="14.00" duration="75.00" routeLength="643.08" waitingTime="0.00" waitingCount="0" stopTime="0.00" timeLoss="27.07" rerouteNo="0" devices="tripinfo_v469" vType="CarDefault" speedFactor="1.02" vaporized=""/>
    <tripinfo id="v459" depart="44.00" departLane="154_0" departPos="5.10" departSpeed="0.00" departDelay="32.00" arrival="117.00" arrivalLane="161_0" arrivalPos="79.97" arrivalSpeed="15.31" duration="73.00" routeLength="643.08" waitingTime="0.00" waitingCount="0" stopTime="0.00" timeLoss="29.97" rerouteNo="0" devices="tripinfo_v459" vType="CarDefault" speedFactor="1.12" vaporized=""/>
    <tripinfo id="v481" depart="47.00" departLane="154_0" departPos="5.10" departSpeed="0.00" departDelay="35.00" arrival="119.00" arrivalLane="161_0" arrivalPos="79.97" arrivalSpeed="13.86" duration="72.00" routeLength="643.08" waitingTime="0.00" waitingCount="0" stopTime="0.00" timeLoss="24.56" rerouteNo="0" devices="tripinfo_v481" vType="CarDefault" speedFactor="1.02" vaporized=""/>
    <tripinfo id="v464" depart="49.00" departLane="154_0" departPos="5.10" departSpeed="0.00" departDelay="36.00" arrival="124.00" arrivalLane="161_0" arrivalPos="79.97" arrivalSpeed="11.95" duration="75.00" routeLength="643.08" waitingTime="0.00" waitingCount="0" stopTime="0.00" timeLoss="20.75" rerouteNo="0" devices="tripinfo_v464" vType="CarDefault" speedFactor="0.91" vaporized=""/>
    <tripinfo id="v470" depart="53.00" departLane="154_0" departPos="5.10" departSpeed="0.00" departDelay="40.00" arrival="127.00" arrivalLane="161_0" arrivalPos="79.97" arrivalSpeed="11.80" duration="74.00" routeLength="643.08" waitingTime="0.00" waitingCount="0" stopTime="0.00" timeLoss="19.74" rerouteNo="0" devices="tripinfo_v470" vType="CarDefault" speedFactor="0.91" vaporized=""/>
    <tripinfo id="v479" depart="56.00" departLane="154_0" departPos="5.10" departSpeed="0.00" departDelay="43.00" arrival="128.00" arrivalLane="161_0" arrivalPos="79.97" arrivalSpeed="13.18" duration="72.00" routeLength="643.08" waitingTime="0.00" waitingCount="0" stopTime="0.00" timeLoss="25.62" rerouteNo="0" devices="tripinfo_v479" vType="CarDefault" speedFactor="1.04" vaporized=""/>
    <tripinfo id="v466" depart="59.00" departLane="154_0" departPos="5.10" departSpeed="0.00" departDelay="43.00" arrival="130.00" arrivalLane="161_0" arrivalPos="79.97" arrivalSpeed="13.00" duration="71.00" routeLength="643.08" waitingTime="0.00" waitingCount="0" stopTime="0.00" timeLoss="21.10" rerouteNo="0" devices="tripinfo_v466" vType="CarDefault" speedFactor="0.98" vaporized=""/>
    <tripinfo id="v477" depart="62.00" departLane="154_0" departPos="5.10" departSpeed="0.00" departDelay="46.00" arrival="132.00" arrivalLane="161_0" arrivalPos="79.97" arrivalSpeed="13.89" duration="70.00" routeLength="643.08" waitingTime="0.00" waitingCount="0" stopTime="0.00" timeLoss="22.51" rerouteNo="0" devices="tripinfo_v477" vType="CarDefault" speedFactor="1.03" vaporized=""/>
    <tripinfo id="v467" depart="64.00" departLane="154_0" departPos="5.10" departSpeed="0.00" departDelay="47.00" arrival="134.00" arrivalLane="161_0" arrivalPos="79.97" arrivalSpeed="13.09" duration="70.00" routeLength="643.08" waitingTime="0.00" waitingCount="0" stopTime="0.00" timeLoss="23.07" rerouteNo="0" devices="tripinfo_v467" vType="CarDefault" speedFactor="1.03" vaporized=""/>
    <tripinfo id="v12" depart="0.00" departLane="132_1" departPos="5.10" departSpeed="0.00" departDelay="0.00" arrival="135.00" arrivalLane="74_0" arrivalPos="122.21" arrivalSpeed="12.17" duration="135.00" routeLength="931.22" waitingTime="47.00" waitingCount="1" stopTime="0.00" timeLoss="60.04" rerouteNo="0" devices="tripinfo_v12" vType="CarDefault" speedFactor="0.94" vaporized=""/>
    <tripinfo id="v483" depart="67.00" departLane="154_0" departPos="5.10" departSpeed="0.00" departDelay="50.00" arrival="137.00" arrivalLane="161_0" arrivalPos="79.97" arrivalSpeed="12.40" duration="70.00" routeLength="643.08" waitingTime="0.00" waitingCount="0" stopTime="0.00" timeLoss="21.15" rerouteNo="0" devices="tripinfo_v483" vType="CarDefault" speedFactor="1.00" vaporized=""/>
    <tripinfo id="v460" depart="70.00" departLane="154_0" departPos="5.10" departSpeed="0.00" departDelay="52.00" arrival="139.00" arrivalLane="161_0" arrivalPos="79.97" arrivalSpeed="13.52" duration="69.00" routeLength="643.08" waitingTime="0.00" waitingCount="0" stopTime="0.00" timeLoss="20.12" rerouteNo="0" devices="tripinfo_v460" vType="CarDefault" speedFactor="1.00" vaporized=""/>
    <tripinfo id="v473" depart="73.00" departLane="154_0" departPos="5.10" departSpeed="0.00" departDelay="54.00" arrival="142.00" arrivalLane="161_0" arrivalPos="79.97" arrivalSpeed="13.06" duration="69.00" routeLength="643.08" waitingTime="0.00" waitingCount="0" stopTime="0.00" timeLoss="21.54" rerouteNo="0" devices="tripinfo_v473" vType="CarDefault" speedFactor="1.02" vaporized=""/>
    <tripinfo id="v493" depart="76.00" departLane="154_0" departPos="5.10" departSpeed="0.00" departDelay="56.00" arrival="146.00" arrivalLane="161_0" arrivalPos="79.97" arrivalSpeed="12.23" duration="70.00" routeLength="643.08" waitingTime="0.00" waitingCount="0" stopTime="0.00" timeLoss="14.98" rerouteNo="0" devices="tripinfo_v493" vType="CarDefault" speedFactor="0.89" vaporized=""/>
    <tripinfo id="v487" depart="79.00" departLane="154_0" departPos="5.10" departSpeed="0.00" departDelay="54.00" arrival="148.00" arrivalLane="161_0" arrivalPos="79.97" arrivalSpeed="12.53" duration="69.00" routeLength="643.08" waitingTime="0.00" waitingCount="0" stopTime="0.00" timeLoss="16.61" rerouteNo="0" devices="tripinfo_v487" vType="CarDefault" speedFactor="0.93" vaporized=""/>
    <tripinfo id="v484" depart="82.00" departLane="154_0" departPos="5.10" departSpeed="0.00" departDelay="56.00" arrival="150.00" arrivalLane="161_0" arrivalPos="79.97" arrivalSpeed="14.19" duration="68.00" routeLength="643.08" waitingTime="0.00" waitingCount="0" stopTime="0.00" timeLoss="23.76" rerouteNo="0" devices="tripinfo_v484" vType="CarDefault" speedFactor="1.10" vaporized=""/>
    <tripinfo id="v496" depart="84.00" departLane="154_0" departPos="5.10" departSpeed="0.00" departDelay="58.00" arrival="153.00" arrivalLane="161_0" arrivalPos="79.97" arrivalSpeed="13.61" duration="69.00" routeLength="643.08" waitingTime="0.00" waitingCount="0" stopTime="0.00" timeLoss="21.30" rerouteNo="0" devices="tripinfo_v496" vType="CarDefault" speedFactor="1.01" vaporized=""/>
    <tripinfo id="v490" depart="87.00" departLane="154_0" departPos="5.10" departSpeed="0.00" departDelay="58.00" arrival="155.00" arrivalLane="161_0" arrivalPos="79.97" arrivalSpeed="13.16" duration="68.00" routeLength="643.08" waitingTime="0.00" waitingCount="0" stopTime="0.00" timeLoss="21.17" rerouteNo="0" devices="tripinfo_v490" vType="CarDefault" speedFactor="1.03" vaporized=""/>
    <tripinfo id="v1" depart="0.00" departLane="132_0" departPos="5.10" departSpeed="0.00" departDelay="0.00" arrival="156.00" arrivalLane="74_0" arrivalPos="122.21" arrivalSpeed="13.97" duration="156.00" routeLength="931.22" waitingTime="67.00" waitingCount="2" stopTime="0.00" timeLoss="90.09" rerouteNo="0" devices="tripinfo_v1" vType="CarDefault" speedFactor="1.06" vaporized=""/>
    <tripinfo id="v494" depart="90.00" departLane="154_0" departPos="5.10" departSpeed="0.00" departDelay="61.00" arrival="158.00" arrivalLane="161_0" arrivalPos="79.97" arrivalSpeed="13.10" duration="68.00" routeLength="643.08" waitingTime="0.00" waitingCount="0" stopTime="0.00" timeLoss="20.41" rerouteNo="0" devices="tripinfo_v494" vType="CarDefault" speedFactor="1.02" vaporized=""/>
    <tripinfo id="v495" depart="94.00" departLane="154_0" departPos="5.10" departSpeed="0.00" departDelay="65.00" arrival="160.00" arrivalLane="161_0" arrivalPos="79.97" arrivalSpeed="13.65" duration="66.00" routeLength="643.08" waitingTime="0.00" waitingCount="0" stopTime="0.00" timeLoss="19.23" rerouteNo="0" devices="tripinfo_v495" vType="CarDefault" speedFactor="1.06" vaporized=""/>
    <tripinfo id="v486" depart="97.00" departLane="154_0" departPos="5.10" departSpeed="0.00" departDelay="65.00" arrival="162.00" arrivalLane="161_0" arrivalPos="79.97" arrivalSpeed="14.03" duration="65.00" routeLength="643.08" waitingTime="0.00" waitingCount="0" stopTime="0.00" timeLoss="16.97" rerouteNo="0" devices="tripinfo_v486" vType="CarDefault" speedFactor="1.01" vaporized=""/>
    <tripinfo id="v491" depart="100.00" departLane="154_0" departPos="5.10" departSpeed="0.00" departDelay="68.00" arrival="164.00" arrivalLane="161_0" arrivalPos="79.97" arrivalSpeed="15.37" duration="64.00" routeLength="643.08" waitingTime="0.00" waitingCount="0" stopTime="0.00" timeLoss="20.44" rerouteNo="0" devices="tripinfo_v491" vType="CarDefault" speedFactor="1.12" vaporized=""/>
    <tripinfo id="v485" depart="103.00" departLane="154_0" departPos="5.10" departSpeed="0.00" departDelay="70.00" arrival="173.00" arrivalLane="161_0" arrivalPos="79.97" arrivalSpeed="12.07" duration="70.00" routeLength="643.08" waitingTime="2.00" waitingCount="1" stopTime="0.00" timeLoss="19.22" rerouteNo="0" devices="tripinfo_v485" vType="CarDefault" speedFactor="0.95" vaporized=""/>
    <tripinfo id="v497" depart="105.00" departLane="154_0" departPos="5.10" departSpeed="0.00" departDelay="72.00" arrival="175.00" arrivalLane="161_0" arrivalPos="79.97" arrivalSpeed="14.06" duration="70.00" routeLength="643.08" waitingTime="2.00" waitingCount="1" stopTime="0.00" timeLoss="25.81" rerouteNo="0" devices="tripinfo_v497" vType="CarDefault" speedFactor="1.11" vaporized=""/>
    <tripinfo id="v492" depart="109.00" departLane="154_0" departPos="5.10" departSpeed="0.00" departDelay="72.00" arrival="178.00" arrivalLane="161_0" arrivalPos="79.97" arrivalSpeed="12.94" duration="69.00" routeLength="643.08" waitingTime="2.00" waitingCount="1" stopTime="0.00" timeLoss="20.72" rerouteNo="0" devices="tripinfo_v492" vType="CarDefault" speedFactor="1.00" vaporized=""/>
    <tripinfo id="v489" depart="112.00" departLane="154_0" departPos="5.10" departSpeed="0.00" departDelay="74.00" arrival="180.00" arrivalLane="161_0" arrivalPos="79.97" arrivalSpeed="14.02" duration="68.00" routeLength="643.08" waitingTime="1.00" waitingCount="1" stopTime="0.00" timeLoss="21.42" rerouteNo="0" devices="tripinfo_v489" vType="CarDefault" speedFactor="1.06" vaporized=""/>
    <tripinfo id="v488" depart="115.00" departLane="154_0" departPos="5.10" departSpeed="0.00" departDelay="76.00" arrival="181.00" arrivalLane="161_0" arrivalPos="79.97" arrivalSpeed="14.54" duration="66.00" routeLength="643.08" waitingTime="1.00" waitingCount="1" stopTime="0.00" timeLoss="21.40" rerouteNo="0" devices="tripinfo_v488" vType="CarDefault" speedFactor="1.08" vaporized=""/>
    <tripinfo id="v520" depart="118.00" departLane="154_0" departPos="5.10" departSpeed="0.00" departDelay="78.00" arrival="185.00" arrivalLane="161_0" arrivalPos="79.97" arrivalSpeed="12.98" duration="67.00" routeLength="643.08" waitingTime="0.00" waitingCount="0" stopTime="0.00" timeLoss="17.95" rerouteNo="0" devices="tripinfo_v520" vType="CarDefault" speedFactor="0.98" vaporized=""/>
    <tripinfo id="v521" depart="121.00" departLane="154_0" departPos="5.10" departSpeed="0.00" departDelay="80.00" arrival="187.00" arrivalLane="161_0" arrivalPos="79.97" arrivalSpeed="15.50" duration="66.00" routeLength="643.08" waitingTime="0.00" waitingCount="0" stopTime="0.00" timeLoss="23.07" rerouteNo="0" devices="tripinfo_v521" vType="CarDefault" speedFactor="1.14" vaporized=""/>
    <tripinfo id="v18" depart="2.00" departLane="132_1" departPos="5.10" departSpeed="0.00" departDelay="2.00" arrival="188.00" arrivalLane="74_0" arrivalPos="122.21" arrivalSpeed="13.65" duration="186.00" routeLength="931.22" waitingTime="90.00" waitingCount="3" stopTime="0.00" timeLoss="116.68" rerouteNo="0" devices="tripinfo_v18" vType="CarDefault" speedFactor="1.01" vaporized=""/>
    <tripinfo id="v508" depart="123.00" departLane="154_0" departPos="5.10" departSpeed="0.00" departDelay="81.00" arrival="189.00" arrivalLane="161_0" arrivalPos="79.97" arrivalSpeed="14.05" duration="66.00" routeLength="643.08" waitingTime="0.00" waitingCount="0" stopTime="0.00" timeLoss="18.42" rerouteNo="0" devices="tripinfo_v508" vType="CarDefault" speedFactor="1.03" vaporized=""/>
    <tripinfo id="v514" depart="126.00" departLane="154_0" departPos="5.10" departSpeed="0.00" departDelay="84.00" arrival="191.00" arrivalLane="161_0" arrivalPos="79.97" arrivalSpeed="13.66" duration="65.00" routeLength="643.08" waitingTime="0.00" waitingCount="0" stopTime="0.00" timeLoss="19.01" rerouteNo="0" devices="tripinfo_v514" vType="CarDefault" speedFactor="1.08" vaporized=""/>
    <tripinfo id="v525" depart="129.00" departLane="154_0" departPos="5.10" departSpeed="0.00" departDelay="87.00" arrival="193.00" arrivalLane="161_0" arrivalPos="79.97" arrivalSpeed="14.19" duration="64.00" routeLength="643.08" waitingTime="0.00" waitingCount="0" stopTime="0.00" timeLoss="18.67" rerouteNo="0" devices="tripinfo_v525" vType="CarDefault" speedFactor="1.06" vaporized=""/>
    <tripinfo id="v519" depart="132.00" departLane="154_0" departPos="5.10" departSpeed="0.00" departDelay="88.00" arrival="198.00" arrivalLane="161_0" arrivalPos="79.97" arrivalSpeed="11.29" duration="66.00" routeLength="643.08" waitingTime="0.00" waitingCount="0" stopTime="0.00" timeLoss="13.06" rerouteNo="0" devices="tripinfo_v519" vType="CarDefault" speedFactor="0.92" vaporized=""/>
    <tripinfo id="v507" depart="135.00" departLane="154_0" departPos="5.10" departSpeed="0.00" departDelay="90.00" arrival="200.00" arrivalLane="161_0" arrivalPos="79.97" arrivalSpeed="12.83" duration="65.00" routeLength="643.08" waitingTime="0.00" waitingCount="0" stopTime="0.00" timeLoss="14.60" rerouteNo="0" devices="tripinfo_v507" vType="CarDefault" speedFactor="0.97" vaporized=""/>
    <tripinfo id="v504" depart="138.00" departLane="154_0" departPos="5.10" departSpeed="0.00" departDelay="92.00" arrival="202.00" arrivalLane="161_0" arrivalPos="79.97" arrivalSpeed="12.61" duration="64.00" routeLength="643.08" waitingTime="0.00" waitingCount="0" stopTime="0.00" timeLoss="14.68" rerouteNo="0" devices="tripinfo_v504" vType="CarDefault" speedFactor="1.00" vaporized=""/>
    <tripinfo id="v518" depart="140.00" departLane="154_0" departPos="5.10" departSpeed="0.00" departDelay="94.00" arrival="209.00" arrivalLane="161_0" arrivalPos="79.97" arrivalSpeed="10.88" duration="69.00" routeLength="643.08" waitingTime="1.00" waitingCount="1" stopTime="0.00" timeLoss="11.39" rerouteNo="0" devices="tripinfo_v518" vType="CarDefault" speedFactor="0.84" vaporized=""/>
    <tripinfo id="v515" depart="144.00" departLane="154_0" departPos="5.10" departSpeed="0.00" departDelay="97.00" arrival="211.00" arrivalLane="161_0" arrivalPos="79.97" arrivalSpeed="13.67" duration="67.00" routeLength="643.08" waitingTime="0.00" waitingCount="0" stopTime="0.00" timeLoss="18.82" rerouteNo="0" devices="tripinfo_v515" vType="CarDefault" speedFactor="1.04" vaporized=""/>
    <tripinfo id="v517" depart="146.00" departLane="154_0" departPos="5.10" departSpeed="0.00" departDelay="99.00" arrival="212.00" arrivalLane="161_0" arrivalPos="79.97" arrivalSpeed="14.11" duration="66.00" routeLength="643.08" waitingTime="1.00" waitingCount="1" stopTime="0.00" timeLoss="22.40" rerouteNo="0" devices="tripinfo_v517" vType="CarDefault" speedFactor="1.11" vaporized=""/>
    <tripinfo id="v522" depart="150.00" departLane="154_0" departPos="5.10" departSpeed="0.00" departDelay="103.00" arrival="214.00" arrivalLane="161_0" arrivalPos="79.97" arrivalSpeed="13.65" duration="64.00" routeLength="643.08" waitingTime="0.00" waitingCount="0" stopTime="0.00" timeLoss="17.93" rerouteNo="0" devices="tripinfo_v522" vType="CarDefault" speedFactor="1.07" vaporized=""/>
    <tripinfo id="v509" depart="153.00" departLane="154_0" departPos="5.10" departSpeed="0.00" departDelay="104.00" arrival="216.00" arrivalLane="161_0" arrivalPos="79.97" arrivalSpeed="14.94" duration="63.00" routeLength="643.08" waitingTime="0.00" waitingCount="0" stopTime="0.00" timeLoss="17.74" rerouteNo="0" devices="tripinfo_v509" vType="CarDefault" speedFactor="1.09" vaporized=""/>
    <tripinfo id="v516" depart="156.00" departLane="154_0" departPos="5.10" departSpeed="0.00" departDelay="107.00" arrival="219.00" arrivalLane="161_0" arrivalPos="79.97" arrivalSpeed="12.37" duration="63.00" routeLength="643.08" waitingTime="0.00" waitingCount="0" stopTime="0.00" timeLoss="12.02" rerouteNo="0" devices="tripinfo_v516" vType="CarDefault" speedFactor="0.97" vaporized=""/>
    <tripinfo id="v500" depart="158.00" departLane="154_0" departPos="5.10" departSpeed="0.00" departDelay="108.00" arrival="220.00" arrivalLane="161_0" arrivalPos="79.97" arrivalSpeed="14.12" duration="62.00" routeLength="643.08" waitingTime="0.00" waitingCount="0" stopTime="0.00" timeLoss="16.41" rerouteNo="0" devices="tripinfo_v500" vType="CarDefault" speedFactor="1.06" vaporized=""/>
    <tripinfo id="v28" depart="3.00" departLane="132_0" departPos="5.10" departSpeed="0.00" departDelay="3.00" arrival="223.00" arrivalLane="74_0" arrivalPos="122.21" arrivalSpeed="14.03" duration="220.00" routeLength="931.22" waitingTime="117.00" waitingCount="4" stopTime="0.00" timeLoss="155.43" rerouteNo="0" devices="tripinfo_v28" vType="CarDefault" speedFactor="1.08" vaporized=""/>
    <tripinfo id="v513" depart="161.00" departLane="154_0" departPos="5.10" departSpeed="0.00" departDelay="111.00" arrival="223.00" arrivalLane="161_0" arrivalPos="79.97" arrivalSpeed="13.13" duration="62.00" routeLength="643.08" waitingTime="0.00" waitingCount="0" stopTime="0.00" timeLoss="13.77" rerouteNo="0" devices="tripinfo_v513" vType="CarDefault" speedFactor="1.02" vaporized=""/>
    <tripinfo id="v501" depart="164.00" departLane="154_0" departPos="5.10" departSpeed="0.00" departDelay="110.00" arrival="226.00" arrivalLane="161_0" arrivalPos="79.97" arrivalSpeed="14.04" duration="62.00" routeLength="643.08" waitingTime="0.00" waitingCount="0" stopTime="0.00" timeLoss="15.35" rerouteNo="0" devices="tripinfo_v501" vType="CarDefault" speedFactor="1.04" vaporized=""/>
    <tripinfo id="v502" depart="166.00" departLane="154_0" departPos="5.10" departSpeed="0.00" departDelay="112.00" arrival="228.00" arrivalLane="161_0" arrivalPos="79.97" arrivalSpeed="14.51" duration="62.00" routeLength="643.08" waitingTime="0.00" waitingCount="0" stopTime="0.00" timeLoss="18.72" rerouteNo="0" devices="tripinfo_v502" vType="CarDefault" speedFactor="1.14" vaporized=""/>
    <tripinfo id="v503" depart="169.00" departLane="154_0" departPos="5.10" departSpeed="0.00" departDelay="115.00" arrival="232.00" arrivalLane="161_0" arrivalPos="79.97" arrivalSpeed="13.35" duration="63.00" routeLength="643.08" waitingTime="1.00" waitingCount="1" stopTime="0.00" timeLoss="12.65" rerouteNo="0" devices="tripinfo_v503" vType="CarDefault" speedFactor="0.97" vaporized=""/>
    <tripinfo id="v506" depart="173.00" departLane="154_0" departPos="5.10" departSpeed="0.00" departDelay="118.00" arrival="235.00" arrivalLane="161_0" arrivalPos="79.97" arrivalSpeed="12.92" duration="62.00" routeLength="643.08" waitingTime="0.00" waitingCount="0" stopTime="0.00" timeLoss="10.79" rerouteNo="0" devices="tripinfo_v506" vType="CarDefault" speedFactor="0.96" vaporized=""/>
    <tripinfo id="v523" depart="176.00" departLane="154_0" departPos="5.10" departSpeed="0.00" departDelay="121.00" arrival="241.00" arrivalLane="161_0" arrivalPos="79.97" arrivalSpeed="14.20" duration="65.00" routeLength="643.08" waitingTime="2.00" waitingCount="1" stopTime="0.00" timeLoss="18.08" rerouteNo="0" devices="tripinfo_v523" vType="CarDefault" speedFactor="1.04" vaporized=""/>
    <tripinfo id="v505" depart="179.00" departLane="154_0" departPos="5.10" departSpeed="0.00" departDelay="123.00" arrival="242.00" arrivalLane="161_0" arrivalPos="79.97" arrivalSpeed="14.60" duration="63.00" routeLength="643.08" waitingTime="0.00" waitingCount="0" stopTime="0.00" timeLoss="18.63" rerouteNo="0" devices="tripinfo_v505" vType="CarDefault" speedFactor="1.10" vaporized=""/>
    <tripinfo id="v510" depart="182.00" departLane="154_0" departPos="5.10" departSpeed="0.00" departDelay="126.00" arrival="245.00" arrivalLane="161_0" arrivalPos="79.97" arrivalSpeed="14.72" duration="63.00" routeLength="643.08" waitingTime="0.00" waitingCount="0" stopTime="0.00" timeLoss="19.04" rerouteNo="0" devices="tripinfo_v510" vType="CarDefault" speedFactor="1.13" vaporized=""/>
    <tripinfo id="v13" depart="6.00" departLane="132_0" departPos="5.10" departSpeed="0.00" departDelay="4.00" arrival="247.00" arrivalLane="74_0" arrivalPos="122.21" arrivalSpeed="15.36" duration="241.00" routeLength="931.22" waitingTime="133.00" waitingCount="5" stopTime="0.00" timeLoss="177.90" rerouteNo="0" devices="tripinfo_v13" vType="CarDefault" speedFactor="1.12" vaporized=""/>
    <tripinfo id="v498" depart="184.00" departLane="154_0" departPos="5.10" departSpeed="0.00" departDelay="125.00" arrival="248.00" arrivalLane="161_0" arrivalPos="79.97" arrivalSpeed="14.10" duration="64.00" routeLength="643.08" waitingTime="0.00" waitingCount="0" stopTime="0.00" timeLoss="17.10" rerouteNo="0" devices="tripinfo_v498" vType="CarDefault" speedFactor="1.04" vaporized=""/>
    <tripinfo id="v512" depart="187.00" departLane="154_0" departPos="5.10" departSpeed="0.00" departDelay="128.00" arrival="249.00" arrivalLane="161_0" arrivalPos="79.97" arrivalSpeed="14.75" duration="62.00" routeLength="643.08" waitingTime="0.00" waitingCount="0" stopTime="0.00" timeLoss="18.90" rerouteNo="0" devices="tripinfo_v512" vType="CarDefault" speedFactor="1.14" vaporized=""/>
    <tripinfo id="v524" depart="190.00" departLane="154_0" departPos="5.10" departSpeed="0.00" departDelay="131.00" arrival="251.00" arrivalLane="161_0" arrivalPos="79.97" arrivalSpeed="14.49" duration="61.00" routeLength="643.08" waitingTime="0.00" waitingCount="0" stopTime="0.00" timeLoss="17.51" rerouteNo="0" devices="tripinfo_v524" vType="CarDefault" speedFactor="1.11" vaporized=""/>
    <tripinfo id="v499" depart="193.00" departLane="154_0" departPos="5.10" departSpeed="0.00" departDelay="133.00" arrival="259.00" arrivalLane="161_0" arrivalPos="79.97" arrivalSpeed="11.38" duration="66.00" routeLength="643.08" waitingTime="0.00" waitingCount="0" stopTime="0.00" timeLoss="11.19" rerouteNo="0" devices="tripinfo_v499" vType="CarDefault" speedFactor="0.88" vaporized=""/>
    <tripinfo id="v8" depart="8.00" departLane="132_0" departPos="5.10" departSpeed="0.00" departDelay="6.00" arrival="276.00" arrivalLane="74_0" arrivalPos="122.21" arrivalSpeed="13.43" duration="268.00" routeLength="931.22" waitingTime="156.00" waitingCount="6" stopTime="0.00" timeLoss="200.95" rerouteNo="0" devices="tripinfo_v8" vType="CarDefault" speedFactor="1.05" vaporized=""/>
    <tripinfo id="v511" depart="196.00" departLane="154_0" departPos="5.10" departSpeed="0.00" departDelay="136.00" arrival="276.00" arrivalLane="161_0" arrivalPos="79.97" arrivalSpeed="9.47" duration="80.00" routeLength="643.08" waitingTime="0.00" waitingCount="0" stopTime="0.00" timeLoss="11.27" rerouteNo="0" devices="tripinfo_v511" vType="CarDefault" speedFactor="0.71" vaporized=""/>