<?xml version="1.0" encoding="UTF-8"?>

<!-- generated on 2022-04-24 16:13:40 by Eclipse SUMO GUI Version 1.9.2
<configuration xmlns:xsi="http://www.w3.org/2001/XMLSchema-instance" xsi:noNamespaceSchemaLocation="http://sumo.dlr.de/xsd/sumoConfiguration.xsd">

    <input>
        <net-file value="\\wsl$\Ubuntu\home\svadlmat\UTC\Project/Maps/sumo/Chodov.net.xml"/>
        <route-files value="\\wsl$\Ubuntu\home\svadlmat\UTC\Project/Traci/scenarios/test/routes.rou.xml"/>
    </input>

    <output>
        <tripinfo-output value="tripinfo.xml"/>
    </output>

    <time>
        <begin value="0"/>
        <end value="200"/>
    </time>

    <processing>
        <time-to-teleport value="-1"/>
    </processing>

    <traci_server>
        <remote-port value="49503"/>
    </traci_server>

</configuration>
-->

<tripinfos xmlns:xsi="http://www.w3.org/2001/XMLSchema-instance" xsi:noNamespaceSchemaLocation="http://sumo.dlr.de/xsd/tripinfo_file.xsd">
    <tripinfo id="flow0.0" depart="0.00" departLane="132_0" departPos="4.60" departSpeed="0.00" departDelay="0.00" arrival="75.00" arrivalLane="165_0" arrivalPos="63.19" arrivalSpeed="11.85" duration="75.00" routeLength="796.91" waitingTime="0.00" waitingCount="0" stopTime="0.00" timeLoss="10.34" rerouteNo="0" devices="tripinfo_flow0.0" vType="CarDefault" speedFactor="0.93" vaporized=""/>
    <tripinfo id="flow0.1" depart="3.00" departLane="132_0" departPos="4.60" departSpeed="0.00" departDelay="2.90" arrival="81.00" arrivalLane="165_0" arrivalPos="63.19" arrivalSpeed="11.67" duration="78.00" routeLength="796.91" waitingTime="0.00" waitingCount="0" stopTime="0.00" timeLoss="9.80" rerouteNo="0" devices="tripinfo_flow0.1" vType="CarDefault" speedFactor="0.88" vaporized=""/>
    <tripinfo id="flow0.2" depart="6.00" departLane="132_0" departPos="4.60" departSpeed="0.00" departDelay="5.80" arrival="84.00" arrivalLane="165_0" arrivalPos="63.19" arrivalSpeed="11.62" duration="78.00" routeLength="796.91" waitingTime="0.00" waitingCount="0" stopTime="0.00" timeLoss="14.04" rerouteNo="0" devices="tripinfo_flow0.2" vType="CarDefault" speedFactor="0.94" vaporized=""/>
    <tripinfo id="flow0.3" depart="8.00" departLane="132_0" departPos="4.60" departSpeed="0.00" departDelay="7.70" arrival="86.00" arrivalLane="165_0" arrivalPos="63.19" arrivalSpeed="12.79" duration="78.00" routeLength="796.91" waitingTime="0.00" waitingCount="0" stopTime="0.00" timeLoss="14.64" rerouteNo="0" devices="tripinfo_flow0.3" vType="CarDefault" speedFactor="0.94" vaporized=""/>
    <tripinfo id="flow0.4" depart="10.00" departLane="132_0" departPos="4.60" departSpeed="0.00" departDelay="9.60" arrival="88.00" arrivalLane="165_0" arrivalPos="63.19" arrivalSpeed="15.56" duration="78.00" routeLength="796.91" waitingTime="0.00" waitingCount="0" stopTime="0.00" timeLoss="26.46" rerouteNo="0" devices="tripinfo_flow0.4" vType="CarDefault" speedFactor="1.16" vaporized=""/>
    <tripinfo id="flow0.5" depart="12.00" departLane="132_0" departPos="4.60" departSpeed="0.00" departDelay="11.50" arrival="91.00" arrivalLane="165_0" arrivalPos="63.19" arrivalSpeed="13.47" duration="79.00" routeLength="796.91" waitingTime="0.00" waitingCount="0" stopTime="0.00" timeLoss="20.26" rerouteNo="0" devices="tripinfo_flow0.5" vType="CarDefault" speedFactor="1.02" vaporized=""/>
    <tripinfo id="flow0.6" depart="14.00" departLane="132_0" departPos="4.60" departSpeed="0.00" departDelay="13.40" arrival="94.00" arrivalLane="165_0" arrivalPos="63.19" arrivalSpeed="13.02" duration="80.00" routeLength="796.91" waitingTime="0.00" waitingCount="0" stopTime="0.00" timeLoss="20.14" rerouteNo="0" devices="tripinfo_flow0.6" vType="CarDefault" speedFactor="1.01" vaporized=""/>
    <tripinfo id="flow0.7" depart="16.00" departLane="132_0" departPos="4.60" departSpeed="0.00" departDelay="15.30" arrival="97.00" arrivalLane="165_0" arrivalPos="63.19" arrivalSpeed="12.15" duration="81.00" routeLength="796.91" waitingTime="0.00" waitingCount="0" stopTime="0.00" timeLoss="18.90" rerouteNo="0" devices="tripinfo_flow0.7" vType="CarDefault" speedFactor="0.98" vaporized=""/>
    <tripinfo id="flow0.8" depart="18.00" departLane="132_0" departPos="4.60" departSpeed="0.00" departDelay="17.20" arrival="99.00" arrivalLane="165_0" arrivalPos="63.19" arrivalSpeed="11.90" duration="81.00" routeLength="796.91" waitingTime="0.00" waitingCount="0" stopTime="0.00" timeLoss="13.77" rerouteNo="0" devices="tripinfo_flow0.8" vType="CarDefault" speedFactor="0.89" vaporized=""/>
    <tripinfo id="flow0.9" depart="20.00" departLane="132_0" departPos="4.60" departSpeed="0.00" departDelay="19.10" arrival="104.00" arrivalLane="165_0" arrivalPos="63.19" arrivalSpeed="10.60" duration="84.00" routeLength="796.91" waitingTime="0.00" waitingCount="0" stopTime="0.00" timeLoss="11.17" rerouteNo="0" devices="tripinfo_flow0.9" vType="CarDefault" speedFactor="0.83" vaporized=""/>
    <tripinfo id="flow0.10" depart="22.00" departLane="132_0" departPos="4.60" departSpeed="0.00" departDelay="21.00" arrival="106.00" arrivalLane="165_0" arrivalPos="63.19" arrivalSpeed="11.89" duration="84.00" routeLength="796.91" waitingTime="0.00" waitingCount="0" stopTime="0.00" timeLoss="15.33" rerouteNo="0" devices="tripinfo_flow0.10" vType="CarDefault" speedFactor="0.87" vaporized=""/>
    <tripinfo id="flow0.11" depart="24.00" departLane="132_0" departPos="4.60" departSpeed="0.00" departDelay="22.90" arrival="108.00" arrivalLane="165_0" arrivalPos="63.19" arrivalSpeed="11.27" duration="84.00" routeLength="796.91" waitingTime="0.00" waitingCount="0" stopTime="0.00" timeLoss="19.43" rerouteNo="0" devices="tripinfo_flow0.11" vType="CarDefault" speedFactor="0.92" vaporized=""/>
    <tripinfo id="flow0.12" depart="26.00" departLane="132_0" departPos="4.60" departSpeed="0.00" departDelay="24.80" arrival="111.00" arrivalLane="165_0" arrivalPos="63.19" arrivalSpeed="12.16" duration="85.00" routeLength="796.91" waitingTime="0.00" waitingCount="0" stopTime="0.00" timeLoss="21.84" rerouteNo="0" devices="tripinfo_flow0.12" vType="CarDefault" speedFactor="0.95" vaporized=""/>
    <tripinfo id="flow0.13" depart="28.00" departLane="132_0" departPos="4.60" departSpeed="0.00" departDelay="26.70" arrival="113.00" arrivalLane="165_0" arrivalPos="63.19" arrivalSpeed="14.24" duration="85.00" routeLength="796.91" waitingTime="0.00" waitingCount="0" stopTime="0.00" timeLoss="32.11" rerouteNo="0" devices="tripinfo_flow0.13" vType="CarDefault" speedFactor="1.13" vaporized=""/>
    <tripinfo id="flow0.15" depart="31.00" departLane="132_0" departPos="4.60" departSpeed="0.00" departDelay="29.50" arrival="115.00" arrivalLane="165_0" arrivalPos="63.19" arrivalSpeed="16.24" duration="84.00" routeLength="796.91" waitingTime="0.00" waitingCount="0" stopTime="0.00" timeLoss="33.23" rerouteNo="0" devices="tripinfo_flow0.15" vType="CarDefault" speedFactor="1.18" vaporized=""/>
    <tripinfo id="flow0.14" depart="30.00" departLane="132_0" departPos="4.60" departSpeed="0.00" departDelay="28.60" arrival="119.00" arrivalLane="165_0" arrivalPos="63.19" arrivalSpeed="11.79" duration="89.00" routeLength="796.91" waitingTime="0.00" waitingCount="0" stopTime="0.00" timeLoss="23.67" rerouteNo="0" devices="tripinfo_flow0.14" vType="CarDefault" speedFactor="0.93" vaporized=""/>
    <tripinfo id="flow0.17" depart="35.00" departLane="132_0" departPos="4.60" departSpeed="0.00" departDelay="33.30" arrival="121.00" arrivalLane="165_0" arrivalPos="63.19" arrivalSpeed="13.71" duration="86.00" routeLength="796.91" waitingTime="0.00" waitingCount="0" stopTime="0.00" timeLoss="26.03" rerouteNo="0" devices="tripinfo_flow0.17" vType="CarDefault" speedFactor="1.01" vaporized=""/>
    <tripinfo id="flow0.16" depart="33.00" departLane="132_0" departPos="4.60" departSpeed="0.00" departDelay="31.40" arrival="123.00" arrivalLane="165_0" arrivalPos="63.19" arrivalSpeed="15.18" duration="90.00" routeLength="796.91" waitingTime="0.00" waitingCount="0" stopTime="0.00" timeLoss="37.91" rerouteNo="0" devices="tripinfo_flow0.16" vType="CarDefault" speedFactor="1.15" vaporized=""/>
    <tripinfo id="flow0.18" depart="37.00" departLane="132_0" departPos="4.60" departSpeed="0.00" departDelay="35.20" arrival="125.00" arrivalLane="165_0" arrivalPos="63.19" arrivalSpeed="14.87" duration="88.00" routeLength="796.91" waitingTime="0.00" waitingCount="0" stopTime="0.00" timeLoss="37.01" rerouteNo="0" devices="tripinfo_flow0.18" vType="CarDefault" speedFactor="1.17" vaporized=""/>
    <tripinfo id="flow0.19" depart="40.00" departLane="132_0" departPos="4.60" departSpeed="0.00" departDelay="38.10" arrival="128.00" arrivalLane="165_0" arrivalPos="63.19" arrivalSpeed="12.32" duration="88.00" routeLength="796.91" waitingTime="0.00" waitingCount="0" stopTime="0.00" timeLoss="28.49" rerouteNo="0" devices="tripinfo_flow0.19" vType="CarDefault" speedFactor="0.99" vaporized=""/>
    <tripinfo id="flow0.21" depart="43.00" departLane="132_0" departPos="4.60" departSpeed="0.00" departDelay="40.90" arrival="131.00" arrivalLane="165_0" arrivalPos="63.19" arrivalSpeed="13.32" duration="88.00" routeLength="796.91" waitingTime="0.00" waitingCount="0" stopTime="0.00" timeLoss="26.27" rerouteNo="0" devices="tripinfo_flow0.21" vType="CarDefault" speedFactor="0.97" vaporized=""/>
    <tripinfo id="flow0.22" depart="46.00" departLane="132_0" departPos="4.60" departSpeed="0.00" departDelay="43.80" arrival="133.00" arrivalLane="165_0" arrivalPos="63.19" arrivalSpeed="15.11" duration="87.00" routeLength="796.91" waitingTime="0.00" waitingCount="0" stopTime="0.00" timeLoss="35.96" rerouteNo="0" devices="tripinfo_flow0.22" vType="CarDefault" speedFactor="1.18" vaporized=""/>
    <tripinfo id="flow0.20" depart="41.00" departLane="132_0" departPos="4.60" departSpeed="0.00" departDelay="39.00" arrival="136.00" arrivalLane="165_0" arrivalPos="63.19" arrivalSpeed="14.12" duration="95.00" routeLength="796.91" waitingTime="0.00" waitingCount="0" stopTime="0.00" timeLoss="36.43" rerouteNo="0" devices="tripinfo_flow0.20" vType="CarDefault" speedFactor="1.02" vaporized=""/>
    <tripinfo id="car0" depart="0.00" departLane="84_0" departPos="4.60" departSpeed="0.00" departDelay="0.00" arrival="138.00" arrivalLane="159_0" arrivalPos="290.81" arrivalSpeed="14.47" duration="138.00" routeLength="1039.15" waitingTime="50.00" waitingCount="1" stopTime="0.00" timeLoss="65.92" rerouteNo="0" devices="tripinfo_car0" vType="CarDefault" speedFactor="1.06" vaporized=""/>
    <tripinfo id="flow0.24" depart="49.00" departLane="132_0" departPos="4.60" departSpeed="0.00" departDelay="46.60" arrival="139.00" arrivalLane="165_0" arrivalPos="63.19" arrivalSpeed="12.48" duration="90.00" routeLength="796.91" waitingTime="0.00" waitingCount="0" stopTime="0.00" timeLoss="23.65" rerouteNo="0" devices="tripinfo_flow0.24" vType="CarDefault" speedFactor="0.90" vaporized=""/>
    <tripinfo id="flow0.25" depart="52.00" departLane="132_0" departPos="4.60" departSpeed="0.00" departDelay="49.50" arrival="142.00" arrivalLane="165_0" arrivalPos="63.19" arrivalSpeed="13.45" duration="90.00" routeLength="796.91" waitingTime="0.00" waitingCount="0" stopTime="0.00" timeLoss="31.35" rerouteNo="0" devices="tripinfo_flow0.25" vType="CarDefault" speedFactor="1.03" vaporized=""/>
    <tripinfo id="car1" depart="3.00" departLane="84_0" departPos="4.60" departSpeed="0.00" departDelay="3.00" arrival="143.00" arrivalLane="159_0" arrivalPos="290.81" arrivalSpeed="11.90" duration="140.00" routeLength="1039.15" waitingTime="43.00" waitingCount="1" stopTime="0.00" timeLoss="58.52" rerouteNo="0" devices="tripinfo_car1" vType="CarDefault" speedFactor="0.94" vaporized=""/>
    <tripinfo id="car2" depart="6.00" departLane="84_0" departPos="4.60" departSpeed="0.00" departDelay="6.00" arrival="144.00" arrivalLane="159_0" arrivalPos="290.81" arrivalSpeed="13.37" duration="138.00" routeLength="1039.15" waitingTime="43.00" waitingCount="1" stopTime="0.00" timeLoss="62.25" rerouteNo="0" devices="tripinfo_car2" vType="CarDefault" speedFactor="1.01" vaporized=""/>
    <tripinfo id="flow0.23" depart="48.00" departLane="132_0" departPos="4.60" departSpeed="0.00" departDelay="45.70" arrival="144.00" arrivalLane="165_0" arrivalPos="63.19" arrivalSpeed="15.18" duration="96.00" routeLength="796.91" waitingTime="1.00" waitingCount="1" stopTime="0.00" timeLoss="41.16" rerouteNo="0" devices="tripinfo_flow0.23" vType="CarDefault" speedFactor="1.10" vaporized=""/>
    <tripinfo id="flow0.26" depart="55.00" departLane="132_0" departPos="4.60" departSpeed="0.00" departDelay="52.40" arrival="147.00" arrivalLane="165_0" arrivalPos="63.19" arrivalSpeed="13.24" duration="92.00" routeLength="796.91" waitingTime="0.00" waitingCount="0" stopTime="0.00" timeLoss="29.34" rerouteNo="0" devices="tripinfo_flow0.26" vType="CarDefault" speedFactor="0.96" vaporized=""/>
    <tripinfo id="flow0.27" depart="56.00" departLane="132_0" departPos="4.60" departSpeed="0.00" departDelay="53.30" arrival="149.00" arrivalLane="165_0" arrivalPos="63.19" arrivalSpeed="14.65" duration="93.00" routeLength="796.91" waitingTime="1.00" waitingCount="1" stopTime="0.00" timeLoss="38.10" rerouteNo="0" devices="tripinfo_flow0.27" vType="CarDefault" speedFactor="1.09" vaporized=""/>
    <tripinfo id="flow0.28" depart="59.00" departLane="132_0" departPos="4.60" departSpeed="0.00" departDelay="56.20" arrival="152.00" arrivalLane="165_0" arrivalPos="63.19" arrivalSpeed="13.28" duration="93.00" routeLength="796.91" waitingTime="0.00" waitingCount="0" stopTime="0.00" timeLoss="35.33" rerouteNo="0" devices="tripinfo_flow0.28" vType="CarDefault" speedFactor="1.04" vaporized=""/>
    <tripinfo id="flow0.29" depart="61.00" departLane="132_0" departPos="4.60" departSpeed="0.00" departDelay="58.10" arrival="155.00" arrivalLane="165_0" arrivalPos="63.19" arrivalSpeed="13.00" duration="94.00" routeLength="796.91" waitingTime="0.00" waitingCount="0" stopTime="0.00" timeLoss="36.07" rerouteNo="0" devices="tripinfo_flow0.29" vType="CarDefault" speedFactor="1.04" vaporized=""/>
    <tripinfo id="flow0.30" depart="63.00" departLane="132_0" departPos="4.60" departSpeed="0.00" departDelay="60.00" arrival="157.00" arrivalLane="165_0" arrivalPos="63.19" arrivalSpeed="14.52" duration="94.00" routeLength="796.91" waitingTime="0.00" waitingCount="0" stopTime="0.00" timeLoss="38.72" rerouteNo="0" devices="tripinfo_flow0.30" vType="CarDefault" speedFactor="1.09" vaporized=""/>
    <tripinfo id="flow0.31" depart="66.00" departLane="132_0" departPos="4.60" departSpeed="0.00" departDelay="62.90" arrival="160.00" arrivalLane="165_0" arrivalPos="63.19" arrivalSpeed="12.67" duration="94.00" routeLength="796.91" waitingTime="0.00" waitingCount="0" stopTime="0.00" timeLoss="34.39" rerouteNo="0" devices="tripinfo_flow0.31" vType="CarDefault" speedFactor="1.00" vaporized=""/>
    <tripinfo id="flow0.32" depart="68.00" departLane="132_0" departPos="4.60" departSpeed="0.00" departDelay="64.80" arrival="164.00" arrivalLane="165_0" arrivalPos="63.19" arrivalSpeed="12.45" duration="96.00" routeLength="796.91" waitingTime="4.00" waitingCount="1" stopTime="0.00" timeLoss="28.99" rerouteNo="0" devices="tripinfo_flow0.32" vType="CarDefault" speedFactor="0.90" vaporized=""/>
    <tripinfo id="flow0.33" depart="70.00" departLane="132_0" departPos="4.60" departSpeed="0.00" departDelay="66.70" arrival="166.00" arrivalLane="165_0" arrivalPos="63.19" arrivalSpeed="12.08" duration="96.00" routeLength="796.91" waitingTime="3.00" waitingCount="1" stopTime="0.00" timeLoss="27.56" rerouteNo="0" devices="tripinfo_flow0.33" vType="CarDefault" speedFactor="0.88" vaporized=""/>
    <tripinfo id="flow0.34" depart="72.00" departLane="132_0" departPos="4.60" departSpeed="0.00" departDelay="68.60" arrival="170.00" arrivalLane="165_0" arrivalPos="63.19" arrivalSpeed="11.58" duration="98.00" routeLength="796.91" waitingTime="2.00" waitingCount="1" stopTime="0.00" timeLoss="26.75" rerouteNo="0" devices="tripinfo_flow0.34" vType="CarDefault" speedFactor="0.85" vaporized=""/>
    <tripinfo id="flow0.35" depart="74.00" departLane="132_0" departPos="4.60" departSpeed="0.00" departDelay="70.50" arrival="173.00" arrivalLane="165_0" arrivalPos="63.19" arrivalSpeed="10.64" duration="99.00" routeLength="796.91" waitingTime="2.00" waitingCount="2" stopTime="0.00" timeLoss="28.35" rerouteNo="0" devices="tripinfo_flow0.35" vType="CarDefault" speedFactor="0.85" vaporized=""/>
    <tripinfo id="flow0.36" depart="76.00" departLane="132_0" departPos="4.60" departSpeed="0.00" departDelay="72.40" arrival="174.00" arrivalLane="165_0" arrivalPos="63.19" arrivalSpeed="13.88" duration="98.00" routeLength="796.91" waitingTime="1.00" waitingCount="1" stopTime="0.00" timeLoss="46.87" rerouteNo="0" devices="tripinfo_flow0.36" vType="CarDefault" speedFactor="1.17" vaporized=""/>
    <tripinfo id="flow0.38" depart="81.00" departLane="132_0" departPos="4.60" departSpeed="0.00" departDelay="77.20" arrival="176.00" arrivalLane="165_0" arrivalPos="63.19" arrivalSpeed="14.61" duration="95.00" routeLength="796.91" waitingTime="0.00" waitingCount="0" stopTime="0.00" timeLoss="40.79" rerouteNo="0" devices="tripinfo_flow0.38" vType="CarDefault" speedFactor="1.10" vaporized=""/>
    <tripinfo id="flow0.37" depart="79.00" departLane="132_0" departPos="4.60" departSpeed="0.00" departDelay="75.30" arrival="180.00" arrivalLane="165_0" arrivalPos="63.19" arrivalSpeed="13.64" duration="101.00" routeLength="796.91" waitingTime="0.00" waitingCount="0" stopTime="0.00" timeLoss="41.58" rerouteNo="0" devices="tripinfo_flow0.37" vType="CarDefault" speedFactor="1.02" vaporized=""/>
    <tripinfo id="flow0.39" depart="84.00" departLane="132_0" departPos="4.60" departSpeed="0.00" departDelay="80.10" arrival="182.00" arrivalLane="165_0" arrivalPos="63.19" arrivalSpeed="12.91" duration="98.00" routeLength="796.91" waitingTime="0.00" waitingCount="0" stopTime="0.00" timeLoss="38.57" rerouteNo="0" devices="tripinfo_flow0.39" vType="CarDefault" speedFactor="1.00" vaporized=""/>
    <tripinfo id="car3" depart="8.00" departLane="84_0" departPos="4.60" departSpeed="0.00" departDelay="8.00" arrival="183.00" arrivalLane="159_0" arrivalPos="290.81" arrivalSpeed="14.21" duration="175.00" routeLength="1039.15" waitingTime="80.00" waitingCount="2" stopTime="0.00" timeLoss="103.88" rerouteNo="0" devices="tripinfo_car3" vType="CarDefault" speedFactor="1.08" vaporized=""/>
    <tripinfo id="flow0.40" depart="86.00" departLane="132_0" departPos="4.60" departSpeed="0.00" departDelay="82.00" arrival="185.00" arrivalLane="165_0" arrivalPos="63.19" arrivalSpeed="13.59" duration="99.00" routeLength="796.91" waitingTime="0.00" waitingCount="0" stopTime="0.00" timeLoss="37.78" rerouteNo="0" devices="tripinfo_flow0.40" vType="CarDefault" speedFactor="1.00" vaporized=""/>
    <tripinfo id="flow0.41" depart="88.00" departLane="132_0" departPos="4.60" departSpeed="0.00" departDelay="83.90" arrival="188.00" arrivalLane="165_0" arrivalPos="63.19" arrivalSpeed="11.55" duration="100.00" routeLength="796.91" waitingTime="1.00" waitingCount="1" stopTime="0.00" timeLoss="33.61" rerouteNo="0" devices="tripinfo_flow0.41" vType="CarDefault" speedFactor="0.90" vaporized=""/>
    <tripinfo id="flow0.46" depart="100.00" departLane="132_0" departPos="4.60" departSpeed="0.00" departDelay="95.40" arrival="190.00" arrivalLane="165_0" arrivalPos="63.19" arrivalSpeed="14.26" duration="90.00" routeLength="796.91" waitingTime="0.00" waitingCount="0" stopTime="0.00" timeLoss="35.94" rerouteNo="0" devices="tripinfo_flow0.46" vType="CarDefault" speedFactor="1.12" vaporized=""/>
    <tripinfo id="flow0.42" depart="91.00" departLane="132_0" departPos="4.60" departSpeed="0.00" departDelay="86.80" arrival="192.00" arrivalLane="165_0" arrivalPos="63.19" arrivalSpeed="14.41" duration="101.00" routeLength="796.91" waitingTime="1.00" waitingCount="1" stopTime="0.00" timeLoss="48.55" rerouteNo="0" devices="tripinfo_flow0.42" vType="CarDefault" speedFactor="1.14" vaporized=""/>
    <tripinfo id="flow0.44" depart="95.00" departLane="132_0" departPos="4.60" departSpeed="0.00" departDelay="90.60" arrival="195.00" arrivalLane="165_0" arrivalPos="63.19" arrivalSpeed="13.16" duration="100.00" routeLength="796.91" waitingTime="0.00" waitingCount="0" stopTime="0.00" timeLoss="38.32" rerouteNo="0" devices="tripinfo_flow0.44" vType="CarDefault" speedFactor="0.97" vaporized=""/>
    <tripinfo id="flow0.43" depart="93.00" departLane="132_0" departPos="4.60" departSpeed="0.00" departDelay="88.70" arrival="198.00" arrivalLane="165_0" arrivalPos="63.19" arrivalSpeed="14.02" duration="105.00" routeLength="796.91" waitingTime="1.00" waitingCount="1" stopTime="0.00" timeLoss="45.53" rerouteNo="0" devices="tripinfo_flow0.43" vType="CarDefault" speedFactor="1.02" vaporized=""/>
    <tripinfo id="flow0.45" depart="98.00" departLane="132_0" departPos="4.60" departSpeed="0.00" departDelay="93.50" arrival="199.00" arrivalLane="165_0" arrivalPos="63.19" arrivalSpeed="15.00" duration="101.00" routeLength="796.91" waitingTime="1.00" waitingCount="1" stopTime="0.00" timeLoss="46.37" rerouteNo="0" devices="tripinfo_flow0.45" vType="CarDefault" speedFactor="1.08" vaporized=""/>
    <tripinfo id="flow0.48" depart="104.00" departLane="132_0" departPos="4.60" departSpeed="0.00" departDelay="99.20" arrival="203.00" arrivalLane="165_0" arrivalPos="63.19" arrivalSpeed="12.67" duration="99.00" routeLength="796.91" waitingTime="0.00" waitingCount="0" stopTime="0.00" timeLoss="38.39" rerouteNo="0" devices="tripinfo_flow0.48" vType="CarDefault" speedFactor="0.99" vaporized=""/>
    <tripinfo id="flow0.47" depart="102.00" departLane="132_0" departPos="4.60" departSpeed="0.00" departDelay="97.30" arrival="206.00" arrivalLane="165_0" arrivalPos="63.19" arrivalSpeed="12.80" duration="104.00" routeLength="796.91" waitingTime="2.00" waitingCount="2" stopTime="0.00" timeLoss="44.48" rerouteNo="0" devices="tripinfo_flow0.47" vType="CarDefault" speedFactor="1.02" vaporized=""/>
    <tripinfo id="flow0.50" depart="108.00" departLane="132_0" departPos="4.60" departSpeed="0.00" departDelay="103.00" arrival="209.00" arrivalLane="165_0" arrivalPos="63.19" arrivalSpeed="11.44" duration="101.00" routeLength="796.91" waitingTime="0.00" waitingCount="0" stopTime="0.00" timeLoss="32.31" rerouteNo="0" devices="tripinfo_flow0.50" vType="CarDefault" speedFactor="0.88" vaporized=""/>
    <tripinfo id="flow0.49" depart="106.00" departLane="132_0" departPos="4.60" departSpeed="0.00" departDelay="101.10" arrival="211.00" arrivalLane="165_0" arrivalPos="63.19" arrivalSpeed="11.58" duration="105.00" routeLength="796.91" waitingTime="3.00" waitingCount="2" stopTime="0.00" timeLoss="41.39" rerouteNo="0" devices="tripinfo_flow0.49" vType="CarDefault" speedFactor="0.94" vaporized=""/>
    <tripinfo id="flow0.52" depart="114.00" departLane="132_0" departPos="4.60" departSpeed="0.00" departDelay="108.80" arrival="214.00" arrivalLane="165_0" arrivalPos="63.19" arrivalSpeed="11.63" duration="100.00" routeLength="796.91" waitingTime="0.00" waitingCount="0" stopTime="0.00" timeLoss="34.29" rerouteNo="0" devices="tripinfo_flow0.52" vType="CarDefault" speedFactor="0.91" vaporized=""/>
    <tripinfo id="flow0.51" depart="111.00" departLane="132_0" departPos="4.60" departSpeed="0.00" departDelay="105.90" arrival="217.00" arrivalLane="165_0" arrivalPos="63.19" arrivalSpeed="11.32" duration="106.00" routeLength="796.91" waitingTime="4.00" waitingCount="2" stopTime="0.00" timeLoss="39.51" rerouteNo="0" devices="tripinfo_flow0.51" vType="CarDefault" speedFactor="0.91" vaporized=""/>
    <tripinfo id="flow0.54" depart="119.00" departLane="132_0" departPos="4.60" departSpeed="0.00" departDelay="113.60" arrival="219.00" arrivalLane="165_0" arrivalPos="63.19" arrivalSpeed="13.78" duration="100.00" routeLength="796.91" waitingTime="0.00" waitingCount="0" stopTime="0.00" timeLoss="40.90" rerouteNo="0" devices="tripinfo_flow0.54" vType="CarDefault" speedFactor="1.02" vaporized=""/>
    <tripinfo id="flow0.53" depart="117.00" departLane="132_0" departPos="4.60" departSpeed="0.00" departDelay="111.70" arrival="221.00" arrivalLane="165_0" arrivalPos="63.19" arrivalSpeed="12.98" duration="104.00" routeLength="796.91" waitingTime="0.00" waitingCount="0" stopTime="0.00" timeLoss="46.10" rerouteNo="0" devices="tripinfo_flow0.53" vType="CarDefault" speedFactor="1.04" vaporized=""/>
    <tripinfo id="flow0.56" depart="124.00" departLane="132_0" departPos="4.60" departSpeed="0.00" departDelay="118.40" arrival="224.00" arrivalLane="165_0" arrivalPos="63.19" arrivalSpeed="13.44" duration="100.00" routeLength="796.91" waitingTime="0.00" waitingCount="0" stopTime="0.00" timeLoss="37.98" rerouteNo="0" devices="tripinfo_flow0.56" vType="CarDefault" speedFactor="0.97" vaporized=""/>
    <tripinfo id="flow0.55" depart="122.00" departLane="132_0" departPos="4.60" departSpeed="0.00" departDelay="116.50" arrival="226.00" arrivalLane="165_0" arrivalPos="63.19" arrivalSpeed="13.29" duration="104.00" routeLength="796.91" waitingTime="2.00" waitingCount="2" stopTime="0.00" timeLoss="45.57" rerouteNo="0" devices="tripinfo_flow0.55" vType="CarDefault" speedFactor="1.02" vaporized=""/>
    <tripinfo id="car4" depart="11.00" departLane="84_0" departPos="4.60" departSpeed="0.00" departDelay="11.00" arrival="228.00" arrivalLane="159_0" arrivalPos="290.81" arrivalSpeed="13.49" duration="217.00" routeLength="1039.15" waitingTime="116.00" waitingCount="3" stopTime="0.00" timeLoss="143.36" rerouteNo="0" devices="tripinfo_car4" vType="CarDefault" speedFactor="1.03" vaporized=""/>
    <tripinfo id="flow0.58" depart="129.00" departLane="132_0" departPos="4.60" departSpeed="0.00" departDelay="123.20" arrival="228.00" arrivalLane="165_0" arrivalPos="63.19" arrivalSpeed="13.67" duration="99.00" routeLength="796.91" waitingTime="0.00" waitingCount="0" stopTime="0.00" timeLoss="42.44" rerouteNo="0" devices="tripinfo_flow0.58" vType="CarDefault" speedFactor="1.06" vaporized=""/>
    <tripinfo id="flow0.59" depart="132.00" departLane="132_0" departPos="4.60" departSpeed="0.00" departDelay="126.10" arrival="232.00" arrivalLane="165_0" arrivalPos="63.19" arrivalSpeed="11.91" duration="100.00" routeLength="796.91" waitingTime="0.00" waitingCount="0" stopTime="0.00" timeLoss="37.27" rerouteNo="0" devices="tripinfo_flow0.59" vType="CarDefault" speedFactor="0.96" vaporized=""/>
    <tripinfo id="flow0.57" depart="126.00" departLane="132_0" departPos="4.60" departSpeed="0.00" departDelay="120.30" arrival="235.00" arrivalLane="165_0" arrivalPos="63.19" arrivalSpeed="11.59" duration="109.00" routeLength="796.91" waitingTime="3.00" waitingCount="2" stopTime="0.00" timeLoss="44.75" rerouteNo="0" devices="tripinfo_flow0.57" vType="CarDefault" speedFactor="0.94" vaporized=""/>
    <tripinfo id="car5" depart="13.00" departLane="84_0" departPos="4.60" departSpeed="0.00" departDelay="13.00" arrival="237.00" arrivalLane="159_0" arrivalPos="290.81" arrivalSpeed="11.08" duration="224.00" routeLength="1039.15" waitingTime="107.00" waitingCount="4" stopTime="0.00" timeLoss="132.34" rerouteNo="0" devices="tripinfo_car5" vType="CarDefault" speedFactor="0.83" vaporized=""/>
    <tripinfo id="flow0.60" depart="134.00" departLane="132_0" departPos="4.60" departSpeed="0.00" departDelay="128.00" arrival="237.00" arrivalLane="165_0" arrivalPos="63.19" arrivalSpeed="12.40" duration="103.00" routeLength="796.91" waitingTime="0.00" waitingCount="0" stopTime="0.00" timeLoss="42.57" rerouteNo="0" devices="tripinfo_flow0.60" vType="CarDefault" speedFactor="0.98" vaporized=""/>
    <tripinfo id="flow0.61" depart="136.00" departLane="132_0" departPos="4.60" departSpeed="0.00" departDelay="129.90" arrival="239.00" arrivalLane="165_0" arrivalPos="63.19" arrivalSpeed="13.37" duration="103.00" routeLength="796.91" waitingTime="2.00" waitingCount="1" stopTime="0.00" timeLoss="45.44" rerouteNo="0" devices="tripinfo_flow0.61" vType="CarDefault" speedFactor="1.03" vaporized=""/>
    <tripinfo id="flow0.62" depart="139.00" departLane="132_0" departPos="4.60" departSpeed="0.00" departDelay="132.80" arrival="242.00" arrivalLane="165_0" arrivalPos="63.19" arrivalSpeed="12.44" duration="103.00" routeLength="796.91" waitingTime="1.00" waitingCount="1" stopTime="0.00" timeLoss="42.25" rerouteNo="0" devices="tripinfo_flow0.62" vType="CarDefault" speedFactor="0.98" vaporized=""/>
    <tripinfo id="flow0.64" depart="144.00" departLane="132_0" departPos="4.60" departSpeed="0.00" departDelay="137.60" arrival="244.00" arrivalLane="165_0" arrivalPos="63.19" arrivalSpeed="14.28" duration="100.00" routeLength="796.91" waitingTime="0.00" waitingCount="0" stopTime="0.00" timeLoss="44.93" rerouteNo="0" devices="tripinfo_flow0.64" vType="CarDefault" speedFactor="1.09" vaporized=""/>
    <tripinfo id="flow0.63" depart="142.00" departLane="132_0" departPos="4.60" departSpeed="0.00" departDelay="135.70" arrival="247.00" arrivalLane="165_0" arrivalPos="63.19" arrivalSpeed="12.68" duration="105.00" routeLength="796.91" waitingTime="0.00" waitingCount="0" stopTime="0.00" timeLoss="46.08" rerouteNo="0" devices="tripinfo_flow0.63" vType="CarDefault" speedFactor="1.01" vaporized=""/>
    <tripinfo id="flow0.66" depart="148.00" departLane="132_0" departPos="4.60" departSpeed="0.00" departDelay="141.40" arrival="250.00" arrivalLane="165_0" arrivalPos="63.19" arrivalSpeed="13.03" duration="102.00" routeLength="796.91" waitingTime="0.00" waitingCount="0" stopTime="0.00" timeLoss="41.39" rerouteNo="0" devices="tripinfo_flow0.66" vType="CarDefault" speedFactor="1.00" vaporized=""/>
    <tripinfo id="flow0.67" depart="151.00" departLane="132_0" departPos="4.60" departSpeed="0.00" departDelay="144.30" arrival="252.00" arrivalLane="165_0" arrivalPos="63.19" arrivalSpeed="13.83" duration="101.00" routeLength="796.91" waitingTime="0.00" waitingCount="0" stopTime="0.00" timeLoss="41.88" rerouteNo="0" devices="tripinfo_flow0.67" vType="CarDefault" speedFactor="1.02" vaporized=""/>