<?xml version="1.0" encoding="UTF-8"?>

<!-- generated on 2022-06-16 08:31:35 by Eclipse SUMO sumo Version 1.9.2
<configuration xmlns:xsi="http://www.w3.org/2001/XMLSchema-instance" xsi:noNamespaceSchemaLocation="http://sumo.dlr.de/xsd/sumoConfiguration.xsd">

    <input>
        <net-file value="\\wsl$\Ubuntu\home\svadlmat\UTC\Project/Maps/sumo/Chodov.net.xml"/>
        <route-files value="\\wsl$\Ubuntu\home\svadlmat\UTC\Project/Traci/scenarios/test3/routes.ruo.xml"/>
    </input>

    <output>
        <summary-output value="summary.txt"/>
        <tripinfo-output value="tripinfo.xml"/>
        <statistic-output value="result.txt"/>
    </output>

    <time>
        <begin value="0"/>
        <end value="300000"/>
    </time>

    <processing>
        <route-steps value="0"/>
        <time-to-teleport value="-1"/>
    </processing>

    <report>
        <verbose value="true"/>
        <duration-log.statistics value="true"/>
    </report>

    <traci_server>
        <remote-port value="50482"/>
    </traci_server>

</configuration>
-->

<summary xmlns:xsi="http://www.w3.org/2001/XMLSchema-instance" xsi:noNamespaceSchemaLocation="http://sumo.dlr.de/xsd/summary_file.xsd">
    <step time="0.00" loaded="1238" inserted="4" running="4" waiting="3" ended="0" arrived="0" collisions="0" teleports="0" halting="4" stopped="0" meanWaitingTime="0.00" meanTravelTime="-1.00" meanSpeed="0.00" meanSpeedRelative="0.00" duration="1240630415"/>
    <step time="1.00" loaded="1238" inserted="4" running="4" waiting="8" ended="0" arrived="0" collisions="0" teleports="0" halting="0" stopped="0" meanWaitingTime="0.00" meanTravelTime="-1.00" meanSpeed="2.21" meanSpeedRelative="0.16" duration="1240630416"/>
    <step time="2.00" loaded="1238" inserted="5" running="5" waiting="11" ended="0" arrived="0" collisions="0" teleports="0" halting="1" stopped="0" meanWaitingTime="0.40" meanTravelTime="-1.00" meanSpeed="3.65" meanSpeedRelative="0.26" duration="1240630416"/>
    <step time="3.00" loaded="1238" inserted="8" running="8" waiting="15" ended="0" arrived="0" collisions="0" teleports="0" halting="3" stopped="0" meanWaitingTime="1.25" meanTravelTime="-1.00" meanSpeed="3.53" meanSpeedRelative="0.25" duration="1240630417"/>
    <step time="4.00" loaded="1238" inserted="8" running="8" waiting="19" ended="0" arrived="0" collisions="0" teleports="0" halting="0" stopped="0" meanWaitingTime="1.25" meanTravelTime="-1.00" meanSpeed="5.22" meanSpeedRelative="0.38" duration="1240630417"/>
    <step time="5.00" loaded="1238" inserted="9" running="9" waiting="21" ended="0" arrived="0" collisions="0" teleports="0" halting="1" stopped="0" meanWaitingTime="1.56" meanTravelTime="-1.00" meanSpeed="6.57" meanSpeedRelative="0.47" duration="1240630418"/>
    <step time="6.00" loaded="1238" inserted="12" running="12" waiting="23" ended="0" arrived="0" collisions="0" teleports="0" halting="3" stopped="0" meanWaitingTime="2.25" meanTravelTime="-1.00" meanSpeed="6.06" meanSpeedRelative="0.44" duration="1240630418"/>
    <step time="7.00" loaded="1238" inserted="12" running="12" waiting="28" ended="0" arrived="0" collisions="0" teleports="0" halting="0" stopped="0" meanWaitingTime="2.25" meanTravelTime="-1.00" meanSpeed="7.30" meanSpeedRelative="0.53" duration="1240630419"/>
    <step time="8.00" loaded="1238" inserted="15" running="15" waiting="31" ended="0" arrived="0" collisions="0" teleports="0" halting="3" stopped="0" meanWaitingTime="3.07" meanTravelTime="-1.00" meanSpeed="6.92" meanSpeedRelative="0.50" duration="1240630419"/>
    <step time="9.00" loaded="1238" inserted="16" running="16" waiting="36" ended="0" arrived="0" collisions="0" teleports="0" halting="2" stopped="0" meanWaitingTime="3.25" meanTravelTime="-1.00" meanSpeed="6.46" meanSpeedRelative="0.46" duration="1240630420"/>
    <step time="10.00" loaded="1238" inserted="16" running="16" waiting="42" ended="0" arrived="0" collisions="0" teleports="0" halting="2" stopped="0" meanWaitingTime="3.25" meanTravelTime="-1.00" meanSpeed="7.45" meanSpeedRelative="0.54" duration="1240630420"/>
    <step time="11.00" loaded="1238" inserted="17" running="17" waiting="43" ended="0" arrived="0" collisions="0" teleports="0" halting="2" stopped="0" meanWaitingTime="3.65" meanTravelTime="-1.00" meanSpeed="7.77" meanSpeedRelative="0.56" duration="1240630420"/>
    <step time="12.00" loaded="1238" inserted="19" running="19" waiting="44" ended="0" arrived="0" collisions="0" teleports="0" halting="2" stopped="0" meanWaitingTime="4.21" meanTravelTime="-1.00" meanSpeed="7.61" meanSpeedRelative="0.55" duration="1240630421"/>
    <step time="13.00" loaded="1238" inserted="19" running="19" waiting="50" ended="0" arrived="0" collisions="0" teleports="0" halting="0" stopped="0" meanWaitingTime="4.21" meanTravelTime="-1.00" meanSpeed="8.30" meanSpeedRelative="0.60" duration="1240630421"/>
    <step time="14.00" loaded="1238" inserted="20" running="20" waiting="51" ended="0" arrived="0" collisions="0" teleports="0" halting="1" stopped="0" meanWaitingTime="4.55" meanTravelTime="-1.00" meanSpeed="8.36" meanSpeedRelative="0.60" duration="1240630422"/>
    <step time="15.00" loaded="1238" inserted="22" running="22" waiting="52" ended="0" arrived="0" collisions="0" teleports="0" halting="3" stopped="0" meanWaitingTime="5.09" meanTravelTime="-1.00" meanSpeed="7.90" meanSpeedRelative="0.57" duration="1240630422"/>
    <step time="16.00" loaded="1238" inserted="22" running="22" waiting="55" ended="0" arrived="0" collisions="0" teleports="0" halting="1" stopped="0" meanWaitingTime="5.09" meanTravelTime="-1.00" meanSpeed="8.26" meanSpeedRelative="0.59" duration="1240630423"/>
    <step time="17.00" loaded="1238" inserted="23" running="23" waiting="61" ended="0" arrived="0" collisions="0" teleports="0" halting="1" stopped="0" meanWaitingTime="5.43" meanTravelTime="-1.00" meanSpeed="8.90" meanSpeedRelative="0.64" duration="1240630423"/>
    <step time="18.00" loaded="1238" inserted="25" running="25" waiting="63" ended="0" arrived="0" collisions="0" teleports="0" halting="2" stopped="0" meanWaitingTime="5.96" meanTravelTime="-1.00" meanSpeed="8.74" meanSpeedRelative="0.63" duration="1240630424"/>
    <step time="19.00" loaded="1238" inserted="26" running="26" waiting="64" ended="0" arrived="0" collisions="0" teleports="0" halting="1" stopped="0" meanWaitingTime="6.35" meanTravelTime="-1.00" meanSpeed="8.87" meanSpeedRelative="0.64" duration="1240630424"/>
    <step time="20.00" loaded="1238" inserted="28" running="28" waiting="65" ended="0" arrived="0" collisions="0" teleports="0" halting="2" stopped="0" meanWaitingTime="7.04" meanTravelTime="-1.00" meanSpeed="8.54" meanSpeedRelative="0.61" duration="1240630425"/>
    <step time="21.00" loaded="1238" inserted="29" running="29" waiting="68" ended="0" arrived="0" collisions="0" teleports="0" halting="1" stopped="0" meanWaitingTime="7.24" meanTravelTime="-1.00" meanSpeed="8.58" meanSpeedRelative="0.62" duration="1240630425"/>
    <step time="22.00" loaded="1238" inserted="29" running="29" waiting="74" ended="0" arrived="0" collisions="0" teleports="0" halting="0" stopped="0" meanWaitingTime="7.24" meanTravelTime="-1.00" meanSpeed="9.05" meanSpeedRelative="0.65" duration="1240630426"/>
    <step time="23.00" loaded="1238" inserted="32" running="32" waiting="75" ended="0" arrived="0" collisions="0" teleports="0" halting="3" stopped="0" meanWaitingTime="8.31" meanTravelTime="-1.00" meanSpeed="8.78" meanSpeedRelative="0.63" duration="1240630426"/>
    <step time="24.00" loaded="1238" inserted="33" running="33" waiting="76" ended="0" arrived="0" collisions="0" teleports="0" halting="1" stopped="0" meanWaitingTime="8.52" meanTravelTime="-1.00" meanSpeed="8.92" meanSpeedRelative="0.64" duration="1240630427"/>
    <step time="25.00" loaded="1238" inserted="33" running="33" waiting="78" ended="0" arrived="0" collisions="0" teleports="0" halting="0" stopped="0" meanWaitingTime="8.52" meanTravelTime="-1.00" meanSpeed="9.32" meanSpeedRelative="0.67" duration="1240630427"/>
    <step time="26.00" loaded="1238" inserted="36" running="36" waiting="78" ended="0" arrived="0" collisions="0" teleports="0" halting="3" stopped="0" meanWaitingTime="9.39" meanTravelTime="-1.00" meanSpeed="9.11" meanSpeedRelative="0.66" duration="1240630428"/>
    <step time="27.00" loaded="1238" inserted="36" running="36" waiting="82" ended="0" arrived="0" collisions="0" teleports="0" halting="0" stopped="0" meanWaitingTime="9.39" meanTravelTime="-1.00" meanSpeed="9.68" meanSpeedRelative="0.70" duration="1240630428"/>
    <step time="28.00" loaded="1238" inserted="36" running="36" waiting="84" ended="0" arrived="0" collisions="0" teleports="0" halting="0" stopped="0" meanWaitingTime="9.39" meanTravelTime="-1.00" meanSpeed="10.09" meanSpeedRelative="0.73" duration="1240630429"/>
    <step time="29.00" loaded="1238" inserted="39" running="39" waiting="89" ended="0" arrived="0" collisions="0" teleports="0" halting="3" stopped="0" meanWaitingTime="10.38" meanTravelTime="-1.00" meanSpeed="9.60" meanSpeedRelative="0.69" duration="1240630429"/>
    <step time="30.00" loaded="1238" inserted="39" running="39" waiting="89" ended="0" arrived="0" collisions="0" teleports="0" halting="1" stopped="0" meanWaitingTime="10.38" meanTravelTime="-1.00" meanSpeed="9.88" meanSpeedRelative="0.71" duration="1240630430"/>
    <step time="31.00" loaded="1238" inserted="39" running="39" waiting="94" ended="0" arrived="0" collisions="0" teleports="0" halting="1" stopped="0" meanWaitingTime="10.38" meanTravelTime="-1.00" meanSpeed="10.35" meanSpeedRelative="0.75" duration="1240630431"/>
    <step time="32.00" loaded="1238" inserted="42" running="42" waiting="97" ended="0" arrived="0" collisions="0" teleports="0" halting="4" stopped="0" meanWaitingTime="11.36" meanTravelTime="-1.00" meanSpeed="9.87" meanSpeedRelative="0.71" duration="1240630431"/>
    <step time="33.00" loaded="1238" inserted="43" running="43" waiting="100" ended="0" arrived="0" collisions="0" teleports="0" halting="1" stopped="0" meanWaitingTime="11.72" meanTravelTime="-1.00" meanSpeed="9.78" meanSpeedRelative="0.70" duration="1240630432"/>
    <step time="34.00" loaded="1238" inserted="44" running="44" waiting="103" ended="0" arrived="0" collisions="0" teleports="0" halting="2" stopped="0" meanWaitingTime="12.05" meanTravelTime="-1.00" meanSpeed="9.92" meanSpeedRelative="0.71" duration="1240630432"/>
    <step time="35.00" loaded="1238" inserted="45" running="45" waiting="103" ended="0" arrived="0" collisions="0" teleports="0" halting="1" stopped="0" meanWaitingTime="12.33" meanTravelTime="-1.00" meanSpeed="9.71" meanSpeedRelative="0.70" duration="1240630433"/>
    <step time="36.00" loaded="1238" inserted="46" running="46" waiting="103" ended="0" arrived="0" collisions="0" teleports="0" halting="2" stopped="0" meanWaitingTime="12.70" meanTravelTime="-1.00" meanSpeed="9.48" meanSpeedRelative="0.68" duration="1240630434"/>
    <step time="37.00" loaded="1238" inserted="47" running="47" waiting="106" ended="0" arrived="0" collisions="0" teleports="0" halting="1" stopped="0" meanWaitingTime="13.02" meanTravelTime="-1.00" meanSpeed="9.73" meanSpeedRelative="0.70" duration="1240630434"/>
    <step time="38.00" loaded="1238" inserted="49" running="49" waiting="110" ended="0" arrived="0" collisions="0" teleports="0" halting="3" stopped="0" meanWaitingTime="13.69" meanTravelTime="-1.00" meanSpeed="9.56" meanSpeedRelative="0.69" duration="1240630435"/>
    <step time="39.00" loaded="1238" inserted="49" running="49" waiting="117" ended="0" arrived="0" collisions="0" teleports="0" halting="0" stopped="0" meanWaitingTime="13.69" meanTravelTime="-1.00" meanSpeed="10.00" meanSpeedRelative="0.72" duration="1240630435"/>
    <step time="40.00" loaded="1238" inserted="50" running="50" waiting="121" ended="0" arrived="0" collisions="0" teleports="0" halting="2" stopped="0" meanWaitingTime="14.04" meanTravelTime="-1.00" meanSpeed="10.03" meanSpeedRelative="0.72" duration="1240630436"/>
    <step time="41.00" loaded="1238" inserted="52" running="52" waiting="123" ended="0" arrived="0" collisions="0" teleports="0" halting="2" stopped="0" meanWaitingTime="14.71" meanTravelTime="-1.00" meanSpeed="9.87" meanSpeedRelative="0.71" duration="1240630437"/>
    <step time="42.00" loaded="1238" inserted="52" running="52" waiting="131" ended="0" arrived="0" collisions="0" teleports="0" halting="0" stopped="0" meanWaitingTime="14.71" meanTravelTime="-1.00" meanSpeed="10.25" meanSpeedRelative="0.74" duration="1240630437"/>
    <step time="43.00" loaded="1238" inserted="54" running="54" waiting="131" ended="0" arrived="0" collisions="0" teleports="0" halting="2" stopped="0" meanWaitingTime="15.44" meanTravelTime="-1.00" meanSpeed="9.77" meanSpeedRelative="0.70" duration="1240630438"/>
    <step time="44.00" loaded="1238" inserted="55" running="55" waiting="132" ended="0" arrived="0" collisions="0" teleports="0" halting="2" stopped="0" meanWaitingTime="15.75" meanTravelTime="-1.00" meanSpeed="9.35" meanSpeedRelative="0.67" duration="1240630438"/>
    <step time="45.00" loaded="1238" inserted="56" running="56" waiting="137" ended="0" arrived="0" collisions="0" teleports="0" halting="3" stopped="0" meanWaitingTime="16.14" meanTravelTime="-1.00" meanSpeed="9.17" meanSpeedRelative="0.66" duration="1240630439"/>
    <step time="46.00" loaded="1238" inserted="57" running="57" waiting="142" ended="0" arrived="0" collisions="0" teleports="0" halting="3" stopped="0" meanWaitingTime="16.49" meanTravelTime="-1.00" meanSpeed="8.96" meanSpeedRelative="0.64" duration="1240630440"/>
    <step time="47.00" loaded="1238" inserted="58" running="58" waiting="151" ended="0" arrived="0" collisions="0" teleports="0" halting="4" stopped="0" meanWaitingTime="16.81" meanTravelTime="-1.00" meanSpeed="8.65" meanSpeedRelative="0.62" duration="1240630441"/>
    <step time="48.00" loaded="1238" inserted="59" running="59" waiting="156" ended="0" arrived="0" collisions="0" teleports="0" halting="4" stopped="0" meanWaitingTime="17.12" meanTravelTime="-1.00" meanSpeed="8.53" meanSpeedRelative="0.61" duration="1240630441"/>
    <step time="49.00" loaded="1238" inserted="62" running="62" waiting="158" ended="0" arrived="0" collisions="0" teleports="0" halting="7" stopped="0" meanWaitingTime="18.11" meanTravelTime="-1.00" meanSpeed="8.29" meanSpeedRelative="0.60" duration="1240630442"/>
    <step time="50.00" loaded="1238" inserted="62" running="62" waiting="163" ended="0" arrived="0" collisions="0" teleports="0" halting="6" stopped="0" meanWaitingTime="18.11" meanTravelTime="-1.00" meanSpeed="8.39" meanSpeedRelative="0.60" duration="1240630443"/>
    <step time="51.00" loaded="1238" inserted="62" running="62" waiting="163" ended="0" arrived="0" collisions="0" teleports="0" halting="5" stopped="0" meanWaitingTime="18.11" meanTravelTime="-1.00" meanSpeed="8.58" meanSpeedRelative="0.62" duration="1240630443"/>
    <step time="52.00" loaded="1238" inserted="64" running="64" waiting="163" ended="0" arrived="0" collisions="0" teleports="0" halting="10" stopped="0" meanWaitingTime="18.83" meanTravelTime="-1.00" meanSpeed="8.28" meanSpeedRelative="0.60" duration="1240630444"/>
    <step time="53.00" loaded="1238" inserted="65" running="65" waiting="164" ended="0" arrived="0" collisions="0" teleports="0" halting="9" stopped="0" meanWaitingTime="19.15" meanTravelTime="-1.00" meanSpeed="8.14" meanSpeedRelative="0.59" duration="1240630444"/>
    <step time="54.00" loaded="1238" inserted="66" running="66" waiting="169" ended="0" arrived="0" collisions="0" teleports="0" halting="10" stopped="0" meanWaitingTime="19.45" meanTravelTime="-1.00" meanSpeed="7.79" meanSpeedRelative="0.56" duration="1240630445"/>
    <step time="55.00" loaded="1238" inserted="67" running="67" waiting="171" ended="0" arrived="0" collisions="0" teleports="0" halting="14" stopped="0" meanWaitingTime="19.75" meanTravelTime="-1.00" meanSpeed="7.73" meanSpeedRelative="0.56" duration="1240630446"/>
    <step time="56.00" loaded="1238" inserted="68" running="68" waiting="172" ended="0" arrived="0" collisions="0" teleports="0" halting="12" stopped="0" meanWaitingTime="20.09" meanTravelTime="-1.00" meanSpeed="7.49" meanSpeedRelative="0.54" duration="1240630446"/>
    <step time="57.00" loaded="1238" inserted="69" running="69" waiting="175" ended="0" arrived="0" collisions="0" teleports="0" halting="12" stopped="0" meanWaitingTime="20.45" meanTravelTime="-1.00" meanSpeed="7.18" meanSpeedRelative="0.52" duration="1240630447"/>
    <step time="58.00" loaded="1238" inserted="70" running="70" waiting="176" ended="0" arrived="0" collisions="0" teleports="0" halting="12" stopped="0" meanWaitingTime="20.77" meanTravelTime="-1.00" meanSpeed="6.86" meanSpeedRelative="0.49" duration="1240630448"/>
    <step time="59.00" loaded="1238" inserted="72" running="72" waiting="179" ended="0" arrived="0" collisions="0" teleports="0" halting="14" stopped="0" meanWaitingTime="21.43" meanTravelTime="-1.00" meanSpeed="6.61" meanSpeedRelative="0.48" duration="1240630448"/>
    <step time="60.00" loaded="1238" inserted="73" running="73" waiting="187" ended="0" arrived="0" collisions="0" teleports="0" halting="13" stopped="0" meanWaitingTime="21.75" meanTravelTime="-1.00" meanSpeed="6.66" meanSpeedRelative="0.48" duration="1240630449"/>
    <step time="61.00" loaded="1238" inserted="73" running="73" waiting="191" ended="0" arrived="0" collisions="0" teleports="0" halting="15" stopped="0" meanWaitingTime="21.75" meanTravelTime="-1.00" meanSpeed="6.85" meanSpeedRelative="0.49" duration="1240630450"/>
    <step time="62.00" loaded="1238" inserted="75" running="75" waiting="192" ended="0" arrived="0" collisions="0" teleports="0" halting="18" stopped="0" meanWaitingTime="22.48" meanTravelTime="-1.00" meanSpeed="6.75" meanSpeedRelative="0.49" duration="1240630451"/>
    <step time="63.00" loaded="1238" inserted="75" running="75" waiting="196" ended="0" arrived="0" collisions="0" teleports="0" halting="17" stopped="0" meanWaitingTime="22.48" meanTravelTime="-1.00" meanSpeed="6.76" meanSpeedRelative="0.49" duration="1240630451"/>
    <step time="64.00" loaded="1238" inserted="78" running="78" waiting="199" ended="0" arrived="0" collisions="0" teleports="0" halting="22" stopped="0" meanWaitingTime="23.37" meanTravelTime="-1.00" meanSpeed="6.40" meanSpeedRelative="0.46" duration="1240630452"/>
    <step time="65.00" loaded="1238" inserted="78" running="78" waiting="201" ended="0" arrived="0" collisions="0" teleports="0" halting="20" stopped="0" meanWaitingTime="23.37" meanTravelTime="-1.00" meanSpeed="6.17" meanSpeedRelative="0.44" duration="1240630453"/>
    <step time="66.00" loaded="1238" inserted="78" running="78" waiting="202" ended="0" arrived="0" collisions="0" teleports="0" halting="20" stopped="0" meanWaitingTime="23.37" meanTravelTime="-1.00" meanSpeed="6.08" meanSpeedRelative="0.44" duration="1240630453"/>
    <step time="67.00" loaded="1238" inserted="81" running="81" waiting="204" ended="0" arrived="0" collisions="0" teleports="0" halting="24" stopped="0" meanWaitingTime="24.41" meanTravelTime="-1.00" meanSpeed="5.86" meanSpeedRelative="0.42" duration="1240630454"/>
    <step time="68.00" loaded="1238" inserted="81" running="81" waiting="207" ended="0" arrived="0" collisions="0" teleports="0" halting="23" stopped="0" meanWaitingTime="24.41" meanTravelTime="-1.00" meanSpeed="6.08" meanSpeedRelative="0.44" duration="1240630455"/>
    <step time="69.00" loaded="1238" inserted="82" running="82" waiting="209" ended="0" arrived="0" collisions="0" teleports="0" halting="26" stopped="0" meanWaitingTime="24.78" meanTravelTime="-1.00" meanSpeed="6.05" meanSpeedRelative="0.44" duration="1240630455"/>
    <step time="70.00" loaded="1238" inserted="84" running="84" waiting="207" ended="0" arrived="0" collisions="0" teleports="0" halting="26" stopped="0" meanWaitingTime="25.43" meanTravelTime="-1.00" meanSpeed="5.93" meanSpeedRelative="0.43" duration="1240630456"/>
    <step time="71.00" loaded="1238" inserted="85" running="84" waiting="207" ended="1" arrived="1" collisions="0" teleports="0" halting="25" stopped="0" meanWaitingTime="25.76" meanTravelTime="71.00" meanSpeed="5.79" meanSpeedRelative="0.42" duration="1240630457"/>
    <step time="72.00" loaded="1238" inserted="86" running="85" waiting="211" ended="1" arrived="1" collisions="0" teleports="0" halting="27" stopped="0" meanWaitingTime="26.09" meanTravelTime="71.00" meanSpeed="5.62" meanSpeedRelative="0.40" duration="1240630458"/>
    <step time="73.00" loaded="1238" inserted="88" running="87" waiting="213" ended="1" arrived="1" collisions="0" teleports="0" halting="29" stopped="0" meanWaitingTime="26.72" meanTravelTime="71.00" meanSpeed="5.42" meanSpeedRelative="0.39" duration="1240630459"/>
    <step time="74.00" loaded="1238" inserted="88" running="87" waiting="220" ended="1" arrived="1" collisions="0" teleports="0" halting="29" stopped="0" meanWaitingTime="26.72" meanTravelTime="71.00" meanSpeed="5.46" meanSpeedRelative="0.39" duration="1240630459"/>
    <step time="75.00" loaded="1238" inserted="89" running="88" waiting="223" ended="1" arrived="1" collisions="0" teleports="0" halting="31" stopped="0" meanWaitingTime="27.07" meanTravelTime="71.00" meanSpeed="5.41" meanSpeedRelative="0.39" duration="1240630460"/>
    <step time="76.00" loaded="1238" inserted="91" running="90" waiting="224" ended="1" arrived="1" collisions="0" teleports="0" halting="33" stopped="0" meanWaitingTime="27.69" meanTravelTime="71.00" meanSpeed="5.39" meanSpeedRelative="0.39" duration="1240630461"/>
    <step time="77.00" loaded="1238" inserted="91" running="90" waiting="228" ended="1" arrived="1" collisions="0" teleports="0" halting="32" stopped="0" meanWaitingTime="27.69" meanTravelTime="71.00" meanSpeed="5.56" meanSpeedRelative="0.40" duration="1240630462"/>
    <step time="78.00" loaded="1238" inserted="93" running="92" waiting="230" ended="1" arrived="1" collisions="0" teleports="0" halting="34" stopped="0" meanWaitingTime="28.37" meanTravelTime="71.00" meanSpeed="5.53" meanSpeedRelative="0.40" duration="1240630463"/>
    <step time="79.00" loaded="1238" inserted="94" running="93" waiting="231" ended="1" arrived="1" collisions="0" teleports="0" halting="34" stopped="0" meanWaitingTime="28.64" meanTravelTime="71.00" meanSpeed="5.52" meanSpeedRelative="0.40" duration="1240630463"/>
    <step time="80.00" loaded="1238" inserted="94" running="93" waiting="240" ended="1" arrived="1" collisions="0" teleports="0" halting="35" stopped="0" meanWaitingTime="28.64" meanTravelTime="71.00" meanSpeed="5.64" meanSpeedRelative="0.41" duration="1240630464"/>
    <step time="81.00" loaded="1238" inserted="96" running="94" waiting="240" ended="2" arrived="2" collisions="0" teleports="0" halting="37" stopped="0" meanWaitingTime="29.28" meanTravelTime="74.50" meanSpeed="5.46" meanSpeedRelative="0.39" duration="1240630465"/>
    <step time="82.00" loaded="1238" inserted="97" running="95" waiting="244" ended="2" arrived="2" collisions="0" teleports="0" halting="37" stopped="0" meanWaitingTime="29.56" meanTravelTime="74.50" meanSpeed="5.38" meanSpeedRelative="0.39" duration="1240630466"/>
    <step time="83.00" loaded="1238" inserted="98" running="95" waiting="246" ended="3" arrived="3" collisions="0" teleports="0" halting="38" stopped="0" meanWaitingTime="29.91" meanTravelTime="75.33" meanSpeed="5.15" meanSpeedRelative="0.37" duration="1240630467"/>
    <step time="84.00" loaded="1238" inserted="101" running="98" waiting="243" ended="3" arrived="3" collisions="0" teleports="0" halting="41" stopped="0" meanWaitingTime="30.84" meanTravelTime="75.33" meanSpeed="4.91" meanSpeedRelative="0.35" duration="1240630468"/>
    <step time="85.00" loaded="1238" inserted="101" running="97" waiting="249" ended="4" arrived="4" collisions="0" teleports="0" halting="39" stopped="0" meanWaitingTime="30.84" meanTravelTime="75.50" meanSpeed="4.82" meanSpeedRelative="0.35" duration="1240630469"/>
    <step time="86.00" loaded="1238" inserted="101" running="97" waiting="249" ended="4" arrived="4" collisions="0" teleports="0" halting="39" stopped="0" meanWaitingTime="30.84" meanTravelTime="75.50" meanSpeed="4.87" meanSpeedRelative="0.35" duration="1240630470"/>
    <step time="87.00" loaded="1238" inserted="104" running="99" waiting="250" ended="5" arrived="5" collisions="0" teleports="0" halting="43" stopped="0" meanWaitingTime="31.80" meanTravelTime="75.40" meanSpeed="4.46" meanSpeedRelative="0.32" duration="1240630471"/>
    <step time="88.00" loaded="1238" inserted="104" running="98" waiting="260" ended="6" arrived="6" collisions="0" teleports="0" halting="41" stopped="0" meanWaitingTime="31.80" meanTravelTime="75.00" meanSpeed="4.36" meanSpeedRelative="0.31" duration="1240630472"/>
    <step time="89.00" loaded="1238" inserted="105" running="99" waiting="262" ended="6" arrived="6" collisions="0" teleports="0" halting="43" stopped="0" meanWaitingTime="32.12" meanTravelTime="75.00" meanSpeed="4.31" meanSpeedRelative="0.31" duration="1240630473"/>
    <step time="90.00" loaded="1238" inserted="108" running="102" waiting="265" ended="6" arrived="6" collisions="0" teleports="0" halting="48" stopped="0" meanWaitingTime="33.06" meanTravelTime="75.00" meanSpeed="4.13" meanSpeedRelative="0.30" duration="1240630474"/>
    <step time="91.00" loaded="1238" inserted="108" running="101" waiting="266" ended="7" arrived="7" collisions="0" teleports="0" halting="47" stopped="0" meanWaitingTime="33.06" meanTravelTime="74.71" meanSpeed="4.00" meanSpeedRelative="0.29" duration="1240630475"/>
    <step time="92.00" loaded="1238" inserted="108" running="101" waiting="269" ended="7" arrived="7" collisions="0" teleports="0" halting="48" stopped="0" meanWaitingTime="33.06" meanTravelTime="74.71" meanSpeed="3.88" meanSpeedRelative="0.28" duration="1240630476"/>
    <step time="93.00" loaded="1238" inserted="110" running="103" waiting="273" ended="7" arrived="7" collisions="0" teleports="0" halting="47" stopped="0" meanWaitingTime="33.74" meanTravelTime="74.71" meanSpeed="3.82" meanSpeedRelative="0.27" duration="1240630477"/>
    <step time="94.00" loaded="1238" inserted="111" running="103" waiting="280" ended="8" arrived="8" collisions="0" teleports="0" halting="46" stopped="0" meanWaitingTime="34.02" meanTravelTime="74.50" meanSpeed="3.82" meanSpeedRelative="0.28" duration="1240630478"/>
    <step time="95.00" loaded="1238" inserted="112" running="104" waiting="285" ended="8" arrived="8" collisions="0" teleports="0" halting="46" stopped="0" meanWaitingTime="34.36" meanTravelTime="74.50" meanSpeed="3.97" meanSpeedRelative="0.29" duration="1240630479"/>
    <step time="96.00" loaded="1238" inserted="113" running="104" waiting="289" ended="9" arrived="9" collisions="0" teleports="0" halting="45" stopped="0" meanWaitingTime="34.69" meanTravelTime="74.22" meanSpeed="4.00" meanSpeedRelative="0.29" duration="1240630480"/>
    <step time="97.00" loaded="1238" inserted="115" running="106" waiting="292" ended="9" arrived="9" collisions="0" teleports="0" halting="46" stopped="0" meanWaitingTime="35.26" meanTravelTime="74.22" meanSpeed="4.01" meanSpeedRelative="0.29" duration="1240630481"/>
    <step time="98.00" loaded="1238" inserted="115" running="106" waiting="296" ended="9" arrived="9" collisions="0" teleports="0" halting="41" stopped="0" meanWaitingTime="35.26" meanTravelTime="74.22" meanSpeed="3.93" meanSpeedRelative="0.28" duration="1240630482"/>
    <step time="99.00" loaded="1238" inserted="116" running="107" waiting="300" ended="9" arrived="9" collisions="0" teleports="0" halting="42" stopped="0" meanWaitingTime="35.60" meanTravelTime="74.22" meanSpeed="4.05" meanSpeedRelative="0.29" duration="1240630483"/>
    <step time="100.00" loaded="1238" inserted="118" running="109" waiting="307" ended="9" arrived="9" collisions="0" teleports="0" halting="44" stopped="0" meanWaitingTime="36.23" meanTravelTime="74.22" meanSpeed="4.03" meanSpeedRelative="0.29" duration="1240630484"/>
    <step time="101.00" loaded="1238" inserted="118" running="108" waiting="311" ended="10" arrived="10" collisions="0" teleports="0" halting="43" stopped="0" meanWaitingTime="36.23" meanTravelTime="74.30" meanSpeed="3.88" meanSpeedRelative="0.28" duration="1240630485"/>
    <step time="102.00" loaded="1238" inserted="119" running="109" waiting="315" ended="10" arrived="10" collisions="0" teleports="0" halting="44" stopped="0" meanWaitingTime="36.55" meanTravelTime="74.30" meanSpeed="3.93" meanSpeedRelative="0.28" duration="1240630486"/>
    <step time="103.00" loaded="1238" inserted="121" running="110" waiting="317" ended="11" arrived="11" collisions="0" teleports="0" halting="48" stopped="0" meanWaitingTime="37.16" meanTravelTime="74.27" meanSpeed="3.84" meanSpeedRelative="0.28" duration="1240630487"/>
    <step time="104.00" loaded="1238" inserted="121" running="110" waiting="324" ended="11" arrived="11" collisions="0" teleports="0" halting="46" stopped="0" meanWaitingTime="37.16" meanTravelTime="74.27" meanSpeed="3.92" meanSpeedRelative="0.28" duration="1240630488"/>
    <step time="105.00" loaded="1238" inserted="123" running="111" waiting="324" ended="12" arrived="12" collisions="0" teleports="0" halting="48" stopped="0" meanWaitingTime="37.77" meanTravelTime="74.17" meanSpeed="3.84" meanSpeedRelative="0.28" duration="1240630489"/>
    <step time="106.00" loaded="1238" inserted="124" running="112" waiting="328" ended="12" arrived="12" collisions="0" teleports="0" halting="47" stopped="0" meanWaitingTime="38.12" meanTravelTime="74.17" meanSpeed="3.80" meanSpeedRelative="0.27" duration="1240630490"/>
    <step time="107.00" loaded="1238" inserted="125" running="112" waiting="330" ended="13" arrived="13" collisions="0" teleports="0" halting="46" stopped="0" meanWaitingTime="38.46" meanTravelTime="74.00" meanSpeed="3.67" meanSpeedRelative="0.26" duration="1240630491"/>